BEGIN_CFG
 Size
    108
 Supercell
        -0.025143     -0.013277     10.544770
        10.549184      0.007996      0.000000
        -0.000000     10.534931      0.000000
 AtomData:  id type       cartes_x      cartes_y      cartes_z           fx          fy          fz
             1    0       5.243880      5.243090      0.193260    -0.059825    0.384300   -1.183764
             2    0       8.698200      7.088380      1.723100     0.948672   -0.265405    0.161793
             3    0       8.818630      5.293050      3.516140    -0.150804   -0.412849    0.065903
             4    0       8.734330      0.068060      8.872940    -0.354854   -0.293727   -0.401711
             5    0       1.753770      5.291380      0.018780     0.192245   -0.230173   -0.631563
             6    0       5.221370      8.781640     10.518510     0.008949    0.058299    0.505519
             7    0       0.019030      1.736350      1.803560    -0.232747   -0.197675   -0.050279
             8    0       1.637330      3.506630      1.726490     0.795927   -0.316288    0.172652
             9    0       0.023680      0.007740      3.541330    -0.377585   -0.393155    0.053389
            10    0      10.465030      7.118810     10.501460     0.791776   -0.173842    0.094405
            11    0       1.841240      7.016770      1.768220    -0.863120    0.717686   -0.020174
            12    0       1.715210      5.334330      3.523530    -0.215284   -0.559293    0.028485
            13    0       3.537520      7.169710      3.413990    -0.092297   -0.724564    0.912707
            14    0       5.239870      7.013110      5.185920     0.101355    0.079334    0.626979
            15    0       1.738440      1.828470      7.031150     0.389895   -0.665599    0.404604
            16    0       8.863420      6.974510      8.720630    -0.505982    0.690275    0.169583
            17    0       1.704030      8.667740      3.607290     0.243607    0.505001   -0.561710
            18    0       5.270790      8.716720      7.034720    -0.221627    0.044895    0.037081
            19    0       1.766210      3.431380      8.774910     0.149337    0.091322    0.572599
            20    0       5.283230      7.006420      8.826540    -0.806544   -0.215895   -0.303958
            21    0       0.034350      8.686880      5.290600    -0.368887    0.425794   -0.000914
            22    1       8.880170     10.412580      1.683340    -0.148713    0.196831    0.775408
            23    1       3.525650      0.056540      0.006680     0.058190    0.098333    0.108251
            24    1       5.243650      1.787810      0.056750    -0.000497   -0.397083    0.265567
            25    1       5.320270     10.487320      1.680710    -0.447104    0.682873    0.172943
            26    1       1.685340      1.712250     10.525050     0.530073   -0.036355    0.041873
            27    1       8.813650      8.768180      0.006450     0.154408   -0.092488   -0.524131
            28    1       3.509240      1.782430      1.727150    -0.224790   -0.249948    0.229280
            29    1       8.750440      3.525900      5.142370    -0.065489   -0.303357    0.356127
            30    1       3.288950      5.221810      1.767410     0.818774    0.175823    0.644596
            31    1       3.450280      3.555540      3.501450    -0.030329    0.016684    0.036054
            32    1       8.778210      7.056110      5.371170     0.108460    0.341467    0.089950
            33    1       3.511700     10.482050      6.918660    -0.240311    0.387065    0.342472
            34    1       7.092060      3.561530      7.049990    -0.057715   -0.560330    0.159906
            35    1      10.512010      3.538980      3.523230     0.412733    0.338781    0.351665
            36    1       1.830660      3.539230      5.158710    -0.151952    0.225425    0.001568
            37    1       5.238960      5.183930      6.995510    -0.039775    0.628665   -0.029473
            38    1       8.799790      8.748280      7.036420    -0.354947   -0.600491    0.122182
            39    1       1.670770      0.109060      8.592150     1.075256   -0.475757    0.548875
            40    1      10.496110      8.675410      1.819980     0.252192    0.415871    0.051265
            41    1       3.491840      8.709350      5.433190     0.104844   -0.320345   -0.982968
            42    1       3.557260      7.085880      7.037770    -0.413840   -0.266013    0.121411
            43    1       6.958390      8.711090      8.823870     0.693705    0.270948   -0.305228
            44    2       8.871410      5.383300     10.504880    -0.877746   -0.816116    0.074954
            45    2       7.015770     10.498340      3.509630    -0.108191    0.372212    0.145686
            46    2       3.490610      3.506050      0.106470    -0.495996    0.171572   -0.554977
            47    2       6.986380      7.083080     10.510580     0.211650   -0.620415    0.224685
            48    2       5.304980     -0.001200      5.320180    -0.541688   -0.423687   -0.498971
            49    2       6.947930      1.787500      5.257260     0.453378    0.168967   -0.230686
            50    2       7.046670      8.799200      1.789390    -0.211032   -0.460962   -0.152857
            51    2       7.068080      6.977990      3.546720    -0.335482    0.323290   -0.302463
            52    2       3.441450      1.790610      5.268150     0.124126   -0.121074    0.227447
            53    2       5.327510      1.775230      7.028730    -0.831652   -0.258947   -0.187601
            54    2       8.812760      5.290100      7.031380    -0.093422   -0.009130    0.420346
            55    2       5.225700     10.518480      8.834470    -0.167679   -0.237797   -0.414855
            56    2       3.607150      8.737310      1.722980    -0.619427    0.297350   -0.037308
            57    2       3.467540      3.509370      7.023250     0.407873   -0.321915    0.137717
            58    2      10.434990      7.078330      3.520120     0.670711   -0.355740    0.186530
            59    2       1.657080      7.021270      5.270470     0.461281    0.295807    0.148086
            60    2       0.006470      1.715330      8.803510    -0.433480    0.462656   -0.144251
            61    2      10.515810      6.975360      7.105250     0.120926    0.655916   -0.811710
            62    2       1.694190      8.784530      7.000590     0.361615   -0.202769    0.200531
            63    2       0.033790      5.373740      8.839180    -0.308784   -1.135577   -0.155366
            64    2       1.841550      6.969500      8.756780    -0.196958    0.109986    0.335368
            65    2       0.097050      8.809480      8.809900    -0.889757   -0.333623   -0.131486
            66    3       6.952050     10.415030     10.524910     0.003474    0.041200    0.188334
            67    3       8.770980      1.641740      0.091400     0.366582    0.305692   -0.177691
            68    3       7.164980      3.549570     10.486120     0.045791   -0.495873   -0.115590
            69    3       8.849660      1.677250      3.526850    -0.268473    0.195623   -0.050497
            70    3      10.468040     -0.004080     10.544120     0.677753    0.007463   -0.093406
            71    3       5.315840      3.567920      1.677920    -0.495257   -0.588824    0.106154
            72    3       7.085520      3.545460      3.570350     0.217403   -0.520341   -0.079092
            73    3       0.130900      3.447000      0.032790    -0.506841    0.390022   -0.672616
            74    3       3.496340      6.984550      0.084450     0.107113    0.211008   -0.374849
            75    3       5.311930      6.899820      1.745730     0.118993    0.287833    0.111245
            76    3       5.268650      5.285600      3.596070    -0.058402    0.136435   -0.234708
            77    3       1.799130     10.504460      5.326630    -0.394028   -0.049179   -0.020308
            78    3       5.229760      3.544260      5.287320    -0.226666   -0.314690    0.118321
            79    3       6.896480      1.653470      8.709100     0.716085    0.031110    0.079609
            80    3       8.732970      3.463740      8.707420     0.026929    0.374885    0.272183
            81    3       1.636690      8.654570     10.522220     0.261906    0.810941    0.703083
            82    3       5.308430      8.758260      3.478400    -0.475549    0.125479    0.232883
            83    3       6.944950      8.746990      5.300550     0.244066   -0.258315   -0.046421
            84    3       6.972780      6.999270      7.170120     0.031335   -0.276656   -0.608281
            85    3       3.607120      1.738810      8.813050    -0.855752    0.257771   -0.354774
            86    3       6.946140      5.346850      8.810170     0.399896    0.143165    0.230225
            87    3       3.490840      5.228540      8.790580     0.060936   -0.300430    0.078992
            88    4       7.052530      1.667480      1.745900    -0.054095    0.742347    0.447778
            89    4       8.867160      3.530550      1.755990    -0.506072   -0.416888   -0.049201
            90    4       8.764930     10.493980      5.268820     0.033604    0.110274   -0.088848
            91    4       1.744830      0.051520      1.790480    -0.089260   -0.837088   -0.054403
            92    4       7.088280      5.156940      1.749950     0.431399    0.975291    0.146407
            93    4       3.489350     10.510950      3.531010     0.261306   -0.105272    0.051024
            94    4       5.198190      1.839430      3.477800     0.604877   -0.662088    0.225605
            95    4       6.933770     10.392750      7.007230     0.961306    0.963112    0.607465
            96    4       8.830060      1.689500      7.039870    -0.805061    0.667358   -0.331154
            97    4       1.698350      1.767030      3.599170     0.695128   -0.119914   -0.963571
            98    4       8.772230      8.782990      3.566900     0.004807    0.022713   -0.091235
            99    4       7.051280      5.282980      5.332190     0.127854    0.261812   -0.274331
           100    4      -0.002960      5.211830      1.703780    -0.176325    1.293522    0.637552
           101    4       0.117550      1.805100      5.284670    -1.065770   -0.153938    0.226945
           102    4       3.380210      5.390490      5.248560     0.711323   -0.435151    0.042377
           103    4      10.439860     10.523800      7.050520     0.751372   -0.306137   -0.410580
           104    4       5.298970      3.475090      8.851910    -0.108677    0.574984   -0.371699
           105    4      10.440200      5.263390      5.262270     0.639271   -0.069543    0.087827
           106    4       0.029940      3.522980      7.061120    -0.599862   -0.226197   -0.114989
           107    4       1.727080      5.162280      7.029710     0.113436    0.860118   -0.038491
           108    4       3.441740      8.807800      8.885100    -0.032895   -0.239112   -0.687150
 Energy
       -833.712087000000
 PlusStress:  xx          yy          zz          yz          xz          xy
       -26.03400   -22.08400   -25.85900     0.51900    -2.57200     5.71000
 Feature   EFS_by	VASP
 Feature   mindist	2.239551
END_CFG

BEGIN_CFG
 Size
    108
 Supercell
        -0.031331     -0.017448     10.539669
        10.545351      0.010322      0.000000
        -0.000000     10.527444      0.000000
 AtomData:  id type       cartes_x      cartes_y      cartes_z           fx          fy          fz
             1    0       5.247740      5.230050      0.217710    -0.127192    0.461260   -1.307759
             2    0       8.673090      7.079330      1.722970     1.130802   -0.224052    0.160192
             3    0       8.809280      5.300110      3.509540    -0.131059   -0.576068    0.148960
             4    0       8.731430      0.063370      8.864060    -0.397425   -0.327764   -0.357619
             5    0       1.742130      5.285070      0.023980     0.287090   -0.257946   -0.643932
             6    0       5.208200      8.764950     10.506460     0.058185    0.090171    0.575131
             7    0       0.014860      1.732050      1.819550    -0.273626   -0.208867   -0.125991
             8    0       1.627540      3.493330      1.729740     0.841917   -0.265534    0.136254
             9    0       0.031280      0.005390      3.546790    -0.439592   -0.417078    0.034537
            10    0      10.440150      7.117120     10.498500     0.892168   -0.164424    0.088846
            11    0       1.839100      7.002750      1.769680    -0.860910    0.769887   -0.048316
            12    0       1.699020      5.349750      3.521960    -0.185446   -0.679237    0.025547
            13    0       3.538630      7.177820      3.408120    -0.105787   -0.777610    0.938024
            14    0       5.234800      7.010090      5.169800     0.106464    0.099614    0.701076
            15    0       1.733390      1.840960      7.012860     0.450766   -0.791474    0.516814
            16    0       8.854840      6.954960      8.710530    -0.526017    0.769512    0.180683
            17    0       1.693030      8.654930      3.609000     0.238673    0.487103   -0.525851
            18    0       5.259070      8.702660      7.040080    -0.228793    0.068838   -0.021999
            19    0       1.771630      3.423620      8.764130     0.118239    0.059358    0.664737
            20    0       5.279520      6.993830      8.834210    -0.850727   -0.248848   -0.393849
            21    0       0.012520      8.673580      5.295210    -0.265358    0.420004   -0.041814
            22    1       8.881380     10.396130      1.668030    -0.136844    0.252643    0.821350
            23    1       3.507840      0.060450      0.006230     0.160873    0.118924    0.089448
            24    1       5.261870      1.801700      0.064730    -0.044857   -0.507589    0.284026
            25    1       5.313070     10.472350      1.683690    -0.423085    0.736449    0.115158
            26    1       1.672290      1.695800     10.516090     0.560561   -0.003596    0.057962
            27    1       8.805820      8.761530      0.015860     0.165833   -0.091139   -0.586394
            28    1       3.510470      1.771310      1.721120    -0.240703   -0.212874    0.213252
            29    1       8.750120      3.515700      5.138500    -0.130132   -0.274234    0.327343
            30    1       3.280340      5.207210      1.771860     0.875635    0.204639    0.658187
            31    1       3.441550      3.559300      3.508900    -0.075187    0.021169    0.021706
            32    1       8.769770      7.044560      5.365130     0.106835    0.370129    0.132040
            33    1       3.517690     10.474680      6.929230    -0.317293    0.390064    0.284688
            34    1       7.098640      3.561200      7.047000    -0.109160   -0.600117    0.168644
            35    1      10.499000      3.529180      3.518290     0.481739    0.385776    0.397808
            36    1       1.832410      3.540890      5.160240    -0.169233    0.173331   -0.077504
            37    1       5.226480      5.155300      6.995400    -0.001044    0.754813   -0.048404
            38    1       8.800640      8.750060      7.034420    -0.428611   -0.728396    0.150880
            39    1       1.652500      0.113610      8.575780     1.179688   -0.491428    0.595880
            40    1      10.509980      8.652500      1.824120     0.175507    0.502593    0.041689
            41    1       3.483140      8.707690      5.435020     0.114289   -0.354183   -0.983834
            42    1       3.551600      7.077910      7.036260    -0.384851   -0.233048    0.081368
            43    1       6.950310      8.702220      8.823500     0.743506    0.241221   -0.291663
            44    2       8.865650      5.382890     10.496950    -0.920723   -0.916081    0.045230
            45    2       7.008900     10.493190      3.510040    -0.114406    0.361809    0.162420
            46    2       3.489700      3.496800      0.112880    -0.489701    0.211793   -0.550860
            47    2       6.976750      7.071440     10.509570     0.207130   -0.625527    0.196009
            48    2       5.304120      0.017180      5.318890    -0.582617   -0.595710   -0.475441
            49    2       6.935530      1.772800      5.255300     0.517250    0.278389   -0.271087
            50    2       7.051360      8.795510      1.791360    -0.305456   -0.450843   -0.180120
            51    2       7.079340      6.966280      3.550350    -0.461040    0.394985   -0.301773
            52    2       3.443170      1.784590      5.264850     0.078709   -0.136766    0.256900
            53    2       5.342640      1.778570      7.028730    -0.968976   -0.276623   -0.189759
            54    2       8.806550      5.280630      7.024760    -0.104544    0.036702    0.450808
            55    2       5.216540     10.505200      8.830350    -0.133109   -0.232687   -0.412587
            56    2       3.611250      8.737560      1.713080    -0.678328    0.232683    0.019721
            57    2       3.462780      3.503440      7.019200     0.447061   -0.357468    0.147950
            58    2      10.412000      7.065920      3.516070     0.786600   -0.284552    0.232310
            59    2       1.638220      7.003630      5.274330     0.474803    0.478775    0.124734
            60    2      -0.003260      1.712520      8.796760    -0.434272    0.479548   -0.139468
            61    2      10.517960      6.957640      7.111750     0.046447    0.753339   -0.895678
            62    2       1.679030      8.777470      7.004230     0.459967   -0.197158    0.103670
            63    2       0.044730      5.370800      8.837980    -0.434113   -1.223205   -0.123347
            64    2       1.845280      6.949410      8.735230    -0.211813    0.197449    0.484195
            65    2       0.102240      8.805280      8.801440    -0.966765   -0.405210   -0.061149
            66    3       6.941630     10.402930     10.516040     0.013190    0.034404    0.225463
            67    3       8.753610      1.653740      0.088660     0.434711    0.249766   -0.194942
            68    3       7.147020      3.556440     10.498150     0.059713   -0.578535   -0.177873
            69    3       8.845070      1.674640      3.531770    -0.271975    0.203899   -0.059906
            70    3      10.480990     10.536120      0.002550     0.683701    0.049834   -0.121475
            71    3       5.329970      3.567810      1.695380    -0.639111   -0.649239    0.034872
            72    3       7.068270      3.537310      3.565890     0.331363   -0.534948    0.010782
            73    3       0.135550      3.430290      0.031880    -0.522414    0.447798   -0.676464
            74    3       3.494260      6.971120      0.092630     0.102914    0.227084   -0.375891
            75    3       5.313010      6.894360      1.756170     0.084763    0.316481    0.075533
            76    3       5.263010      5.269320      3.602470    -0.034942    0.251534   -0.268906
            77    3       1.798850     10.494510      5.322770    -0.403150   -0.075036    0.016680
            78    3       5.219300      3.551830      5.269480    -0.215115   -0.373776    0.182634
            79    3       6.889720      1.653810      8.700380     0.762990    0.014846    0.137891
            80    3       8.729470      3.450740      8.701010    -0.001619    0.430241    0.285452
            81    3       1.634160      8.644040     10.516540     0.216270    0.801009    0.706478
            82    3       5.314190      8.756520      3.477930    -0.546443    0.098447    0.266841
            83    3       6.947490      8.734030      5.301970     0.207667   -0.236829   -0.016745
            84    3       6.961040      6.993120      7.176970     0.039606   -0.315424   -0.634479
            85    3       3.617960      1.721230      8.827040    -0.957454    0.310834   -0.408560
            86    3       6.938740      5.329910      8.805820     0.417505    0.202422    0.240124
            87    3       3.487870      5.224110      8.784520     0.061218   -0.332092    0.118712
            88    4       7.053770      1.651970      1.750950    -0.057153    0.809978    0.454126
            89    4       8.863480      3.526920      1.752620    -0.506727   -0.461259   -0.020230
            90    4       8.754020     10.488170      5.268190     0.023576    0.103603   -0.117242
            91    4       1.745670      0.059730      1.792200    -0.136531   -0.931747   -0.053512
            92    4       7.096310      5.147600      1.753930     0.391319    1.088936    0.188944
            93    4       3.486400     10.500050      3.528570     0.266022   -0.114960    0.071379
            94    4       5.184220      1.845450      3.467520     0.653236   -0.754243    0.290941
            95    4       6.924690     10.374800      7.011170     0.979773    0.987968    0.580568
            96    4       8.826540      1.679940      7.033790    -0.905911    0.777990   -0.337224
            97    4       1.698050      1.765470      3.599190     0.699039   -0.109505   -0.922909
            98    4       8.765060      8.787660      3.566500     0.038804   -0.019942   -0.129800
            99    4       7.046230      5.278380      5.338880     0.129410    0.242696   -0.342435
           100    4      10.535430      5.209990      1.694160    -0.151788    1.341675    0.710649
           101    4       0.120520      1.805010      5.292150    -1.109042   -0.165541    0.102522
           102    4       3.360530      5.403770      5.246900     0.845420   -0.537198    0.019228
           103    4      10.416940     10.516390      7.042020     0.926147   -0.329625   -0.406499
           104    4       5.292450      3.470960      8.857480    -0.122416    0.589246   -0.418944
           105    4      10.427880      5.254910      5.255970     0.668407   -0.084694    0.106924
           106    4       0.021240      3.520380      7.060830    -0.621349   -0.260324   -0.118668
           107    4       1.718660      5.144570      7.026120     0.152397    0.919244   -0.040686
           108    4       3.430570      8.802970      8.889100    -0.029653   -0.302192   -0.767958
 Energy
       -833.102819000000
 PlusStress:  xx          yy          zz          yz          xz          xy
       -20.77400   -16.50700   -20.62400     0.61700    -2.11500     6.73400
 Feature   EFS_by	VASP
 Feature   mindist	2.225604
END_CFG

BEGIN_CFG
 Size
    108
 Supercell
        -0.033282     -0.018878     10.537794
        10.543901      0.011107      0.000000
        -0.000000     10.524809      0.000000
 AtomData:  id type       cartes_x      cartes_y      cartes_z           fx          fy          fz
             1    0       5.248700      5.226600      0.223070    -0.147049    0.476175   -1.319307
             2    0       8.666960      7.075710      1.723240     1.175533   -0.203601    0.155434
             3    0       8.805760      5.301220      3.507560    -0.118119   -0.620239    0.180125
             4    0       8.729570      0.061090      8.860160    -0.399341   -0.334250   -0.336269
             5    0       1.738800      5.282350      0.024310     0.318849   -0.261685   -0.624279
             6    0       5.203930      8.759410     10.503490     0.079166    0.096112    0.583182
             7    0       0.012910      1.730140      1.824620    -0.277036   -0.203739   -0.152030
             8    0       1.626080      3.488240      1.731110     0.826539   -0.232153    0.113307
             9    0       0.032920      0.003700      3.548640    -0.450059   -0.412433    0.027026
            10    0      10.433680      7.116080     10.497540     0.911052   -0.169481    0.079763
            11    0       1.836500      6.999630      1.770050    -0.832264    0.759725   -0.057578
            12    0       1.693210      5.353400      3.521430    -0.168207   -0.707662    0.024245
            13    0       3.538760      7.178750      3.408140    -0.114264   -0.776422    0.918134
            14    0       5.233300      7.009190      5.165820     0.108725    0.103258    0.715080
            15    0       1.732700      1.843430      7.007710     0.454457   -0.819427    0.545100
            16    0       8.850790      6.949960      8.707410    -0.508701    0.776774    0.184709
            17    0       1.689900      8.651600      3.608340     0.233722    0.470435   -0.499567
            18    0       5.254650      8.697960      7.041730    -0.221123    0.084210   -0.042868
            19    0       1.773770      3.421110      8.761790     0.099546    0.048060    0.676830
            20    0       5.276460      6.988990      8.835810    -0.843176   -0.247829   -0.414514
            21    0       0.004660      8.669930      5.296590    -0.215299    0.409135   -0.056961
            22    1       8.881350     10.391040      1.664690    -0.132579    0.267246    0.817305
            23    1       3.502150      0.062010      0.006290     0.196059    0.118521    0.079398
            24    1       5.267780      1.805250      0.068010    -0.063243   -0.531906    0.275322
            25    1       5.309660     10.468820      1.684940    -0.401415    0.738426    0.095612
            26    1       1.669250      1.690230     10.513050     0.554408    0.011960    0.062810
            27    1       8.803420      8.758990      0.017730     0.167738   -0.086397   -0.592999
            28    1       3.510320      1.767090      1.719560    -0.243012   -0.192603    0.208140
            29    1       8.749670      3.511620      5.137860    -0.147763   -0.253690    0.315470
            30    1       3.279340      5.202710      1.774760     0.871589    0.216126    0.641869
            31    1       3.438470      3.560540      3.511380    -0.086003    0.016242    0.013094
            32    1       8.767100      7.041410      5.363300     0.104271    0.366769    0.140654
            33    1       3.519040     10.472930      6.933300    -0.336478    0.381266    0.256372
            34    1       7.100580      3.559720      7.046260    -0.132824   -0.596990    0.164984
            35    1      10.495560      3.526690      3.517440     0.499359    0.393934    0.400767
            36    1       1.832660      3.541790      5.160540    -0.177852    0.144741   -0.099207
            37    1       5.222280      5.147270      6.995140     0.016344    0.787063   -0.057170
            38    1       8.799940      8.748980      7.033960    -0.443688   -0.750025    0.158490
            39    1       1.649020      0.114020      8.571470     1.181385   -0.489098    0.601474
            40    1      10.514880      8.645810      1.825570     0.138453    0.531654    0.037243
            41    1       3.480480      8.706240      5.433380     0.114344   -0.356288   -0.960215
            42    1       3.548870      7.074610      7.035830    -0.366791   -0.216252    0.064663
            43    1       6.949210      8.699670      8.822570     0.736824    0.219788   -0.277017
            44    2       8.861820      5.380810     10.494240    -0.905284   -0.925905    0.035575
            45    2       7.006300     10.492080      3.510440    -0.114330    0.346164    0.163393
            46    2       3.488330      3.494090      0.113880    -0.471738    0.224802   -0.536486
            47    2       6.973970      7.066150     10.509470     0.197795   -0.608020    0.178142
            48    2       5.302620      0.022150      5.317380    -0.578629   -0.647404   -0.448782
            49    2       6.932370      1.768390      5.254020     0.526492    0.308956   -0.274211
            50    2       7.052240      8.793230      1.791630    -0.335903   -0.435957   -0.185598
            51    2       7.082120      6.963060      3.550880    -0.497223    0.413245   -0.296618
            52    2       3.443920      1.782270      5.264180     0.059681   -0.140397    0.259659
            53    2       5.345740      1.779080      7.028230    -0.997552   -0.278098   -0.187379
            54    2       8.804200      5.277430      7.023350    -0.102129    0.054946    0.449993
            55    2       5.213200     10.500120      8.827980    -0.115952   -0.222763   -0.401103
            56    2       3.611200      8.738040      1.709770    -0.688083    0.198030    0.050022
            57    2       3.462110      3.500670      7.018040     0.447413   -0.359594    0.148568
            58    2      10.405770      7.061070      3.515120     0.810933   -0.251371    0.244291
            59    2       1.632930      6.998540      5.275790     0.474722    0.534281    0.110034
            60    2      -0.007310      1.712500      8.794080    -0.419018    0.466503   -0.136599
            61    2      10.518710      6.953130      7.111990     0.012577    0.765793   -0.896005
            62    2       1.674910      8.774570      7.005590     0.486638   -0.191256    0.065172
            63    2       0.047650      5.367240      8.837170    -0.480229   -1.218024   -0.115167
            64    2       1.846160      6.942960      8.728820    -0.223540    0.227960    0.534401
            65    2       0.102110      8.802940      8.798320    -0.971960   -0.421705   -0.032973
            66    3       6.938180     10.398810     10.513410     0.019929    0.032881    0.235241
            67    3       8.748650      1.658340      0.087300     0.449366    0.218685   -0.196624
            68    3       7.141150      3.557340     10.501610     0.059318   -0.593900   -0.190523
            69    3       8.842800      1.674220      3.533210    -0.267023    0.201272   -0.063402
            70    3      10.478340     10.533410      0.003350     0.669022    0.064028   -0.131551