LAMMPS (23 Jun 2022 - Update 4)
OMP_NUM_THREADS environment is not set. Defaulting to 1 thread. (../comm.cpp:98)
  using 1 OpenMP thread(s) per MPI task
OMP_NUM_THREADS environment is not set. Defaulting to 1 thread. (../comm.cpp:98)
  using 1 OpenMP thread(s) per MPI task
dimension 	3
boundary 	p p p
atom_style 	atomic

#-------------------------------------Define variables-------------------------------------------------

lattice  fcc 3.518
Lattice spacing in x,y,z = 3.518 3.518 3.518
#variable big_lattice equal 4.000                                #Optimized lattice paramter

#lattice     fcc ${big_lattice}

variable time_step    equal  0.001				#Time step in pico seconds (DO NOT CHANGE THIS VALUE)
variable tempsol   equal  300				#Initial temperature in kelvin
variable templiq    equal  2000				#Final temperature in kelvin
variable tempcoex  equal 1200
#variable myseed      equal  12345   				#The value seed for the velocity (DO NOT CHANGE THIS VALUE)
variable tdamp        equal  "v_time_step*100" 			#DO NOT CHANGE
variable pdamp        equal  "v_time_step*1000"			#DO NOT CHANGE
variable time_eq      equal  1000 				#Equilibration time is 100 ps
variable time_run     equal  "v_time_eq/v_time_step"	        #Time steps for the iteration to complete=100000=100ps/0.001ps

variable x1 equal "step"
variable x2 equal "vol"
variable x3 equal "temp"

#------------------------------------------Box Parameters----------------------------------------------

region          boxid block 0 6 0 6 0 6 units lattice
create_box      5 boxid
Created orthogonal box = (0 0 0) to (21.108 21.108 21.108)
  4 by 6 by 8 MPI processor grid
create_atoms    1 box
Created 864 atoms
  using lattice units in orthogonal box = (0 0 0) to (21.108 21.108 21.108)
  create_atoms CPU = 0.008 seconds


# Total 5 elements, randomly replace fractions of atom type 1 (Fe) into other atom types (2=Mn, 3=Co, 4=Cr, and 5=Ni).
# This is done sequentially such that the composition is equiatomic.

set 		type 1 type/fraction 2 0.17  324261
Setting atom values ...
  154 settings made for type/fraction
set 		type 1 type/fraction 3 0.22  84326
Setting atom values ...
  163 settings made for type/fraction
set 		type 1 type/fraction 4 0.45  654320
Setting atom values ...
  252 settings made for type/fraction
set 		type 1 type/fraction 5 0.50  121098
Setting atom values ...
  135 settings made for type/fraction

#------------------------------------------Define mass as per the sequence in the POTCAR file------------------------------------
mass		1 55.845	    #Fe
mass		2 54.9380	    #Mn
mass		3 58.933194 	    #Co
mass		4 51.9961	    #Cr
mass		5 58.6934	    #Ni


#-----------------------------create upper and lower regions for coexistence simulations
#region lower block 0 6 0 6 0 3
#region upper block 0 6 0 6 3 6
#group lower region lower
#group upper region upper

#-----------------------------Define Machine Learning Interatomic Potential (MLIP)---------------------

pair_style  mlip mlip.ini
pair_coeff  * *

neighbor    1.0 bin
neigh_modify delay 0 every 1 check yes

#--------------------------------------------Create regions-------------------------------------------

#velocity all create ${tempcoex} 12345

#---------------------------------------Energy Minimization energy  force------------------------------

minimize        	 1.0e-12 1.0e-12 1000 1000
Neighbor list info ...
  update every 1 steps, delay 0 steps, check yes
  max neighbors/atom: 2000, page size: 100000
  master list distance cutoff = 6
  ghost atom cutoff = 6
  binsize = 3, bins = 8 8 8
  1 neighbor lists, perpetual/occasional/extra = 1 0 0
  (1) pair mlip, perpetual
      attributes: full, newton on
      pair build: full/bin/atomonly
      stencil: full/bin/3d
      bin: standard
Setting up cg style minimization ...
  Unit style    : metal
  Current step  : 0
Per MPI rank memory allocation (min/avg/max) = 4.093 | 4.093 | 4.093 Mbytes
   Step          Temp          E_pair         E_mol          TotEng         Press     
         0   0             -6406.1996      0             -6406.1996     -28256.056    
        29   0             -6412.2772      0             -6412.2772     -31529.594    
Loop time of 0.0263455 on 192 procs for 29 steps with 864 atoms

84.9% CPU use with 192 MPI tasks x 1 OpenMP threads

Minimization stats:
  Stopping criterion = energy tolerance
  Energy initial, next-to-last, final = 
     -6406.19959375945  -6412.27718163195  -6412.27718163541
  Force two-norm initial, final = 10.082796 0.0001520145
  Force max component initial, final = 0.86121498 1.9064302e-05
  Final line search alpha, max atom move = 1 1.9064302e-05
  Iterations, force evaluations = 29 58

MPI task timing breakdown:
Section |  min time  |  avg time  |  max time  |%varavg| %total
---------------------------------------------------------------
Pair    | 0.0037247  | 0.0061053  | 0.0088894  |   2.6 | 23.17
Neigh   | 0          | 0          | 0          |   0.0 |  0.00
Comm    | 0.015168   | 0.017868   | 0.020153   |   1.5 | 67.82
Output  | 0          | 0          | 0          |   0.0 |  0.00
Modify  | 0          | 0          | 0          |   0.0 |  0.00
Other   |            | 0.002372   |            |       |  9.00

Nlocal:            4.5 ave           6 max           3 min
Histogram: 96 0 0 0 0 0 0 0 0 96
Nghost:          355.5 ave         357 max         354 min
Histogram: 96 0 0 0 0 0 0 0 0 96
Neighs:              0 ave           0 max           0 min
Histogram: 192 0 0 0 0 0 0 0 0 0
FullNghs:          351 ave         468 max         234 min
Histogram: 96 0 0 0 0 0 0 0 0 96

Total # of neighbors = 67392
Ave neighs/atom = 78
Neighbor list builds = 0
Dangerous builds = 0


write_data	minimized_structure.data
System init for write_data ...

#----------------------------------------Collecting Thermodynamic Data----------------------------------
thermo           	1000
thermo_style     	custom step temp vol press pe ke etotal enthalpy density
log        	        log_HEA_MGs.data

#---------------------------------------------Dumping Data----------------------------------------------

dump 		        1 all custom 50000 HEA_sol_liq_dump_new*.lammpstrj id type x y z

#----------------------------------Equilibation for 100 ps @ NVT ----------------------------------------

velocity all create 300 12345 mom yes dist gaussian
#fix		        equil all npt temp 300 300 ${tdamp} iso 1.0 1.0 ${pdamp}
#run			100000
#unfix			equil


#variable newlat equal ${size}*${latparam}/${big_lattice}
#fix 			equiliq upper nvt temp ${tempcoex} ${templiq} ${tdamp}
#run			${time_run}
#unfix			equiliq


#fix      		equiliq2 upper nvt temp ${templiq} ${tempcoex} ${tdamp}
#velocity all create ${tempstart} ${myseed}
#run ${time_run}
#unfix                   equiliq2

#fix                     equil all nve
#fix                     equildata all print 1000 "${x1} ${x2} ${x3}" file coexistence_NVE_2ns.dat screen no
#run                     2000000
#unfix                   equil
#unfix                   equildata

fix                      1 all npt temp 300 1000 ${tdamp} iso 1.0 1.0 ${pdamp}
fix                      1 all npt temp 300 1000 0.1 iso 1.0 1.0 ${pdamp}
fix                      1 all npt temp 300 1000 0.1 iso 1.0 1.0 1
fix                      2 all print 1000 "${x1} ${x2} ${x3}" file heating_NPT_5ns.dat screen no
run                      2000000
Setting up Verlet run ...
  Unit style    : metal
  Current step  : 29
  Time step     : 0.001
Per MPI rank memory allocation (min/avg/max) = 2.968 | 2.968 | 2.968 Mbytes
   Step          Temp          Volume         Press          PotEng         KinEng         TotEng        Enthalpy       Density    
        29   300            9404.6201     -27728.798     -6412.2772      33.465452     -6378.8117     -6541.5771      8.4801946    
      1000   286.75789      9363.3247      6349.8001     -6379.7147      31.988274     -6347.7264     -6310.6174      8.5175951    
      2000   307.19191      9380.8315     -740.04763     -6377.9557      34.26772      -6343.6879     -6348.021       8.5016993    
      3000   288.47198      9395.3354     -4897.6548     -6379.1032      32.179484     -6346.9237     -6375.6441      8.488575     
      4000   304.77321      9381.0322      767.1741      -6378.4639      33.997911     -6344.466      -6339.9741      8.5015174    
      5000   303.51089      9357.786       6958.0516     -6379.2768      33.857097     -6345.4197     -6304.78        8.5226366    
      6000   287.93039      9383.5997     -2956.6145     -6377.0362      32.119068     -6344.9171     -6362.2334      8.4991913    
      7000   297.03325      9369.936       2017.5291     -6381.2319      33.134506     -6348.0974     -6336.2984      8.5115852    
      8000   306.408        9368.7273      3632.8392     -6379.6445      34.180274     -6345.4642     -6324.2212      8.5126833    
      9000   325.70014      9395.7474     -4438.3411     -6377.4394      36.332341     -6341.1071     -6367.1352      8.4882028    
     10000   297.90606      9387.6549     -2257.7321     -6378.4586      33.231869     -6345.2268     -6358.4555      8.4955199    
     11000   308.11931      9383.2783     -1134.4285     -6377.0287      34.371172     -6342.6575     -6349.3014      8.4994824    
     12000   299.95831      9389.6631     -1455.0696     -6377.7321      33.460801     -6344.2713     -6352.7988      8.4937029    
     13000   293.85792      9392.2213     -1456.0794     -6377.2832      32.780294     -6344.5029     -6353.0387      8.4913894    
     14000   304.83035      9378.4627      698.36646     -6378.9663      34.004285     -6344.962      -6340.874       8.5038467    
     15000   327.23694      9386.3202     -2126.2798     -6378.2925      36.503773     -6341.7888     -6354.2455      8.4967279    
     16000   309.93984      9369.5054      3192.2476     -6378.8435      34.574256     -6344.2692     -6325.601       8.5119764    
     17000   313.46306      9398.6679     -5891.799      -6379.4533      34.967276     -6344.486      -6379.0484      8.4855652    
     18000   323.5665       9371.3652      4322.5109     -6377.9253      36.09433      -6341.8309     -6316.5479      8.5102872    
     19000   305.62911      9377.0278      1505.108      -6378.6326      34.093388     -6344.5392     -6335.7303      8.505148     
     20000   318.20468      9379.641       2048.7336     -6377.2768      35.496211     -6341.7806     -6329.7867      8.5027784    
     21000   300.23565      9378.0326      1647.449      -6378.0193      33.491738     -6344.5276     -6334.8845      8.5042367    
     22000   310.77681      9393.7193     -1364.9428     -6378.8016      34.66762      -6344.134      -6352.1368      8.4900353    
     23000   307.72694      9403.4713     -6339.39       -6377.896       34.327404     -6343.5686     -6380.7756      8.4812307    
     24000   306.12867      9369.8047      4548.6901     -6379.1689      34.149114     -6345.0197     -6318.4182      8.5117045    
     25000   318.97888      9409.4241     -8610.4429     -6376.9028      35.582574     -6341.3202     -6391.8885      8.4758651    
     26000   304.03642      9384.5057     -958.56868     -6377.4598      33.91572      -6343.544      -6349.1587      8.4983708    
     27000   302.1179       9374.5996      2838.8831     -6377.7409      33.701707     -6344.0392     -6327.4284      8.507351     
     28000   308.04443      9379.2916      1107.14       -6377.0808      34.362819     -6342.718      -6336.2367      8.5030952    
     29000   316.4225       9379.7488     -1428.603      -6379.8673      35.297406     -6344.5699     -6352.9335      8.5026807    
     30000   310.86376      9399.535      -5853.7479     -6377.3716      34.67732      -6342.6943     -6377.0366      8.4847824    
     31000   321.16536      9376.6985      1732.3034     -6379.4982      35.826479     -6343.6717     -6333.5334      8.5054467    
     32000   332.38766      9386.2591      221.70242     -6376.9163      37.078344     -6339.838      -6338.5392      8.4967832    
     33000   303.28675      9385.1797      846.97286     -6377.1585      33.832093     -6343.3264     -6338.365       8.4977605    
     34000   315.0697       9383.4494     -205.48659     -6378.0449      35.146499     -6342.8984     -6344.1019      8.4993275    
     35000   319.94302      9385.0545     -101.36485     -6377.6621      35.690125     -6341.972      -6342.5658      8.4978738    
     36000   312.11529      9424.1341     -15147.642     -6378.5342      34.816931     -6343.7173     -6432.817       8.4626352    
     37000   293.85122      9390.2263     -834.61591     -6375.9696      32.779546     -6343.19       -6348.0816      8.4931935    
     38000   318.57971      9377.7371      2510.2257     -6378.3053      35.538046     -6342.7672     -6328.0746      8.5045047    
     39000   327.61744      9368.7126      5576.0584     -6377.6434      36.546218     -6341.0971     -6308.4912      8.5126967    
     40000   310.01342      9388.2599     -1371.661      -6375.9268      34.582463     -6341.3443     -6349.3818      8.4949724    
     41000   327.49963      9365.0757      8289.7228     -6376.5277      36.533077     -6339.9946     -6291.5393      8.5160026    
     42000   320.87802      9403.0775     -6534.3753     -6378.7162      35.794426     -6342.9218     -6381.2716      8.4815858    
     43000   307.14513      9363.6082      8889.8181     -6375.7806      34.262502     -6341.5181     -6289.5633      8.5173373    
     44000   307.19339      9379.6986      1723.9631     -6376.6943      34.267885     -6342.4264     -6332.3337      8.5027262    
     45000   314.45585      9375.5649      1687.9561     -6377.212       35.078024     -6342.1339     -6332.2564      8.5064751    
     46000   292.08033      9389.986      -2242.3431     -6376.6714      32.582        -6344.0894     -6357.2312      8.4934108    
     47000   310.35372      9381.8578      1962.3426     -6377.4871      34.620425     -6342.8666     -6331.3758      8.5007693    
     48000   312.6169       9376.0178      1717.898      -6377.9288      34.872886     -6343.0559     -6333.0027      8.5060642    
     49000   308.59074      9372.5894      4010.5556     -6376.4617      34.423761     -6342.038      -6318.5766      8.5091756    
     50000   323.21711      9405.6406     -4916.3538     -6375.3011      36.055355     -6339.2457     -6368.1073      8.4792745    
     51000   308.07951      9371.3821      4437.5901     -6376.7506      34.366733     -6342.3838     -6316.4277      8.5102718    
     52000   334.30109      9405.8876     -4499.8438     -6375.659       37.29179      -6338.3672     -6364.7844      8.4790519    
     53000   313.39804      9387.5399     -2163.3221     -6377.6056      34.960023     -6342.6456     -6355.321       8.495624     
     54000   314.5612       9380.1814      1548.8718     -6377.167       35.089776     -6342.0772     -6333.0091      8.5022885    
     55000   330.10963      9393.0696     -4239.9506     -6377.357       36.824226     -6340.5327     -6365.3903      8.4906226    
     56000   313.76622      9376.3228      2489.2524     -6378.3255      35.001095     -6343.3244     -6328.7567      8.5057875    
     57000   320.63732      9408.4108     -7344.825      -6376.8984      35.767575     -6341.1308     -6384.2616      8.4767779    
     58000   328.06237      9404.3598     -4199.9418     -6374.9157      36.595851     -6338.3199     -6362.9725      8.4804294    
     59000   313.38922      9393.3166     -1246.5528     -6377.2493      34.959039     -6342.2902     -6349.5986      8.4903993    
     60000   318.02357      9389.3496     -879.89088     -6376.1822      35.476008     -6340.7062     -6345.8627      8.4939865    
     61000   324.1362       9365.4575      5801.6454     -6377.844       36.157881     -6341.6862     -6307.7729      8.5156554    
     62000   327.98438      9382.3376     -256.35698     -6376.4729      36.587151     -6339.8857     -6341.387       8.5003346    
     63000   305.54419      9370.0263      6278.6864     -6376.7466      34.083914     -6342.6627     -6305.943       8.5115032    
     64000   335.2394       9388.9804     -2440.0102     -6377.6678      37.39646      -6340.2714     -6354.5702      8.4943205    
     65000   327.83142      9387.2161     -854.68279     -6377.8319      36.570089     -6341.2618     -6346.2694      8.495917     
     66000   323.64002      9376.5061      3991.4126     -6376.9264      36.102531     -6340.8239     -6317.4647      8.5056212    
     67000   310.13914      9404.7091     -4796.4608     -6374.6415      34.596488     -6340.045      -6368.2001      8.4801144    
     68000   328.35799      9392.3784     -2663.9367     -6378.2099      36.628828     -6341.5811     -6357.1978      8.4912474    
     69000   316.2491       9370.4665      5540.8627     -6375.6621      35.278063     -6340.3841     -6307.9779      8.5111034    
     70000   318.8124       9395.6807     -3940.9355     -6376.1252      35.564003     -6340.5612     -6363.6721      8.488263     
     71000   321.79045      9367.2188      5203.2005     -6377.5493      35.896209     -6341.6531     -6311.2323      8.5140542    
     72000   319.87938      9385.743       1197.8777     -6375.2164      35.683027     -6339.5334     -6332.516       8.4972504    
     73000   324.58598      9392.0749     -2921.0505     -6376.7677      36.208054     -6340.5596     -6357.6831      8.4915218    
     74000   319.54719      9402.4119     -3871.3711     -6375.204       35.64597      -6339.558      -6362.2772      8.4821862    
     75000   323.25664      9396.0002     -5668.3116     -6376.849       36.059765     -6340.7892     -6374.0311      8.4879744    
     76000   315.62415      9382.7208      1825.3897     -6375.5116      35.208349     -6340.3032     -6329.6133      8.4999874    
     77000   323.32356      9399.2764     -4310.4011     -6376.5255      36.06723      -6340.4582     -6365.7455      8.4850158    
     78000   342.17824      9370.2876      6806.4358     -6375.8927      38.170497     -6337.7222     -6297.9149      8.5112658    
     79000   332.17731      9376.8351      4267.66       -6375.7953      37.054879     -6338.7404     -6313.7637      8.5053227    
     80000   320.53893      9395.5427     -2802.9362     -6375.4776      35.7566       -6339.721      -6356.1581      8.4883877    
     81000   346.33018      9372.2651      5465.5816     -6376.5171      38.633653     -6337.8835     -6305.9114      8.50947      
     82000   328.65683      9401.4668     -3923.2986     -6374.7296      36.662164     -6338.0674     -6361.0891      8.4830389    
     83000   324.84885      9382.0965      497.11865     -6375.9439      36.237378     -6339.7065     -6336.7955      8.500553     
     84000   333.29452      9380.7044      2761.4788     -6375.386       37.179505     -6338.2065     -6322.0381      8.5018145    
     85000   327.73362      9388.9889     -491.91574     -6374.5462      36.559178     -6337.987      -6340.8697      8.4943128    
     86000   339.38483      9384.7971      342.96729     -6376.6195      37.858889     -6338.7606     -6336.7516      8.4981069    
     87000   318.89443      9391.2416     -1257.5964     -6375.0865      35.573154     -6339.5134     -6346.8849      8.4922753    
     88000   329.60935      9388.0667     -915.98714     -6377.3257      36.768419     -6340.5573     -6345.9246      8.4951472    
     89000   325.80128      9382.014       3470.602      -6374.3868      36.343623     -6338.0432     -6317.7201      8.5006278    
     90000   323.07724      9384.9763      2089.8825     -6377.0801      36.039752     -6341.0403     -6328.7985      8.4979446    
     91000   333.01719      9415.58       -7582.0901     -6374.9968      37.148569     -6337.8482     -6382.4062      8.4703235    
     92000   323.97262      9400.3121     -4785.8843     -6375.9218      36.139634     -6339.7822     -6367.862       8.484081     
     93000   333.93012      9382.6232      3892.9884     -6374.1886      37.250408     -6336.9382     -6314.1402      8.5000758    
     94000   327.40841      9378.8318      1569.3493     -6375.4812      36.522901     -6338.9583     -6329.7716      8.5035121    
     95000   353.38344      9400.473      -5286.4526     -6377.4349      39.420455     -6338.0144     -6369.0317      8.4839357    
     96000   314.6438       9388.4671      3067.56       -6374.357       35.09899      -6339.258      -6321.2826      8.494785     
     97000   338.11963      9383.5604      2114.5863     -6372.9649      37.717754     -6335.2471     -6322.8625      8.4992269    
     98000   333.379        9392.936      -943.69044     -6375.7476      37.18893      -6338.5587     -6344.0912      8.4907434    
     99000   342.10825      9387.3001      1372.4744     -6374.628       38.16269      -6336.4653     -6328.4239      8.495841     
    100000   332.31891      9402.5948     -4419.5233     -6375.1041      37.070675     -6338.0334     -6363.97        8.4820213    
    101000   350.78872      9382.8367      2514.7557     -6374.3141      39.13101      -6335.1831     -6320.4559      8.4998824    
    102000   334.75342      9381.7164      2910.3131     -6375.393       37.342248     -6338.0508     -6321.0091      8.5008975    
    103000   334.83471      9392.5957     -389.58345     -6373.5723      37.351316     -6336.221      -6338.5049      8.4910509    
    104000   327.24381      9388.5385     -192.32037     -6375.7465      36.504539     -6339.242      -6340.369       8.4947204    
    105000   329.80824      9387.7131      763.34457     -6374.182       36.790605     -6337.3914     -6332.9187      8.4954673    
    106000   317.97312      9399.3888     -4429.1292     -6375.2761      35.47038      -6339.8057     -6365.7898      8.4849144    
    107000   340.3193       9359.4082      12069.358     -6373.5611      37.96313      -6335.5979     -6265.0926      8.5211594    
    108000   349.21101      9373.839       6286.8358     -6374.642       38.955014     -6335.687      -6298.9047      8.5080413    
    109000   331.05015      9389.6288     -623.53234     -6374.8652      36.929143     -6337.936      -6341.5903      8.493734     
    110000   340.54114      9378.6184      2781.356      -6376.1322      37.987877     -6338.1444     -6321.8632      8.5037055    
    111000   339.4239       9375.7943      4576.9163     -6373.772       37.863246     -6335.9088     -6309.1251      8.5062669    
    112000   347.3944       9366.1146      7654.8059     -6375.3652      38.752368     -6336.6128     -6291.8638      8.515058     
    113000   347.70492      9372.3793      5310.43       -6375.3369      38.787007     -6336.5499     -6305.485       8.5093663    
    114000   345.70112      9398.1264     -3192.1858     -6373.7166      38.56348      -6335.1531     -6353.878       8.4860541    
    115000   323.24686      9403.1468     -5249.3664     -6374.5369      36.058674     -6338.4782     -6369.2867      8.4815233    
    116000   327.20899      9389.7198      367.43835     -6373.3097      36.500655     -6336.8091     -6334.6557      8.4936516    
    117000   337.51372      9383.453       1130.4321     -6375.3655      37.650163     -6337.7154     -6331.0948      8.4993242    
    118000   327.6857       9389.3822      1239.0584     -6373.6642      36.553833     -6337.1103     -6329.849       8.493957     
    119000   331.39367      9389.3539      1653.2308     -6373.731       36.967463     -6336.7636     -6327.075       8.4939826    
    120000   326.0757       9379.2533      3520.1274     -6373.6195      36.374235     -6337.2453     -6316.6382      8.5031299    
    121000   345.29118      9384.684       2803.8445     -6373.4078      38.51775      -6334.8901     -6318.4667      8.4982093    
    122000   338.66089      9384.8884      825.30789     -6375.5159      37.778132     -6337.7378     -6332.9035      8.4980242    
    123000   354.93303      9408.5919     -7384.996      -6375.4622      39.593314     -6335.8689     -6379.2364      8.4766148    
    124000   343.02895      9396.8289     -198.13856     -6373.3825      38.265396     -6335.1171     -6336.2792      8.4872258    
    125000   362.83808      9408.3812     -3958.3111     -6374.6556      40.475133     -6334.1805     -6357.4247      8.4768046    
    126000   352.18219      9401.0858     -4129.3855     -6374.7182      39.286454     -6335.4318     -6359.6617      8.4833827    
    127000   333.92703      9388.2009      1998.5196     -6374.2207      37.250063     -6336.9706     -6325.26        8.4950258    
    128000   355.29093      9394.724      -981.44655     -6373.3147      39.633238     -6333.6815     -6339.4364      8.4891274    
    129000   339.31148      9397.5915     -2562.6228     -6373.7118      37.850706     -6335.8611     -6350.8922      8.4865371    
    130000   339.72547      9394.0313     -785.20265     -6372.4561      37.896888     -6334.5592     -6339.163       8.4897534    
    131000   325.91253      9399.5882     -2948.8964     -6373.5909      36.356033     -6337.2349     -6354.5354      8.4847343    
    132000   342.7566       9405.305      -3194.6805     -6372.04        38.235014     -6333.805      -6352.5588      8.4795771    
    133000   347.74007      9382.5754      3299.7218     -6373.6479      38.790929     -6334.857      -6315.5333      8.5001192    
    134000   344.46272      9372.1153      6700.1912     -6374.4411      38.425335     -6336.0157     -6296.8222      8.509606     
    135000   368.69311      9408.4996     -7555.0213     -6374.9786      41.128272     -6333.8503     -6378.2159      8.476698     
    136000   332.87491      9374.0533      6229.099      -6373.1243      37.132697     -6335.9916     -6299.5463      8.5078468    
    137000   354.47202      9392.5832      2023.1917     -6372.3433      39.541887     -6332.8015     -6320.9407      8.4910623    
    138000   348.53721      9403.6636     -2663.4629     -6374.0108      38.879851     -6335.1309     -6350.7636      8.4810572    
    139000   359.55871      9400.2402     -1524.0124     -6371.6693      40.109316     -6331.56       -6340.5017      8.4841458    
    140000   345.99086      9418.9657     -9737.7084     -6373.1322      38.595801     -6334.5364     -6391.783       8.4672788    
    141000   362.6946       9381.4413      3633.089      -6374.3468      40.459128     -6333.8876     -6312.6143      8.5011467    
    142000   347.30664      9395.5869     -1190.2596     -6372.8536      38.742578     -6334.111      -6341.091       8.4883478    
    143000   353.10882      9391.6364      530.84801     -6371.8303      39.389821     -6332.4404     -6329.3287      8.4919183    
    144000   345.62454      9422.2611     -9497.6317     -6372.961       38.554938     -6334.4061     -6390.2608      8.4643175    
    145000   370.00721      9394.1145      1100.7751     -6372.4812      41.274861     -6331.2064     -6324.7521      8.4896782    
    146000   358.8662       9406.0927     -3711.3528     -6373.193       40.032065     -6333.1609     -6354.9496      8.478867     
    147000   345.13867      9379.6546      3192.2259     -6375.9018      38.500738     -6337.401      -6318.7127      8.5027661    
    148000   357.72288      9386.5765      2124.4928     -6372.8806      39.904525     -6332.9761     -6320.5294      8.496496     
    149000   334.80585      9412.3209     -7273.7929     -6373.6801      37.348096     -6336.332      -6379.0634      8.4732565    
    150000   350.8368       9395.9464     -763.04751     -6371.711       39.136373     -6332.5746     -6337.0495      8.488023     
    151000   353.1163       9407.1783     -5557.537      -6374.0117      39.390655     -6334.621      -6367.2521      8.4778885    
    152000   359.16122      9400.0016     -2072.8482     -6373.3274      40.064975     -6333.2625     -6345.4239      8.4843612    
    153000   365.25662      9409.5928     -7542.5995     -6375.2913      40.744926     -6334.5463     -6378.8441      8.4757131    
    154000   364.49426      9401.0487     -3674.9064     -6372.9827      40.659883     -6332.3228     -6353.886       8.4834162    
    155000   333.80124      9401.2399      46.412065     -6371.638       37.23603      -6334.4019     -6334.1296      8.4832437    
    156000   336.45973      9387.5532      2003.533      -6373.1357      37.532589     -6335.6031     -6323.8639      8.4956119    
    157000   349.81345      9392.4568      973.33958     -6372.3634      39.022217     -6333.3411     -6327.6351      8.4911765    
    158000   354.34216      9386.037       2443.0306     -6372.0592      39.527401     -6332.5318     -6318.2197      8.4969843    
    159000   377.32622      9413.701      -7273.3675     -6372.993       42.091308     -6330.9017     -6373.6369      8.4720142    
    160000   351.55734      9398.415      -1341.8679     -6371.6912      39.216751     -6332.4745     -6340.3459      8.4857935    
    161000   372.35504      9370.4523      6262.1734     -6373.8649      41.536765     -6332.3281     -6295.7033      8.5111162    
    162000   360.81228      9388.7201      1725.2296     -6372.5676      40.249153     -6332.3184     -6322.2086      8.494556     
    163000   353.70781      9401.1195     -1781.9466     -6371.6864      39.456638     -6332.2298     -6342.6857      8.4833523    
    164000   349.17611      9417.415      -6829.1736     -6371.3046      38.951121     -6332.3535     -6372.4946      8.468673     
    165000   360.61989      9385.8565      2737.7417     -6373.6437      40.227691     -6333.416      -6317.3778      8.4971477    
    166000   371.94594      9385.5258      2118.6328     -6372.9646      41.491129     -6331.4735     -6319.0626      8.4974471    
    167000   360.07836      9381.2071      5642.3801     -6370.8707      40.167283     -6330.7034     -6297.6657      8.5013589    
    168000   355.94127      9391.4161      1692.7951     -6372.7454      39.705785     -6333.0397     -6323.1171      8.4921175    
    169000   369.53144      9396.9259      878.84615     -6372.0392      41.221788     -6330.8174     -6325.6629      8.4871382    
    170000   351.13376      9422.878      -9735.2886     -6372.9193      39.169499     -6333.7498     -6391.0059      8.4637633    
    171000   372.47129      9387.8183      2354.2147     -6372.0794      41.549733     -6330.5297     -6316.7354      8.495372     
    172000   352.3531       9401.2664     -625.95658     -6370.9043      39.305519     -6331.5987     -6335.2717      8.4832198    
    173000   378.16015      9380.3966      6682.8402     -6371.278       42.184334     -6329.0936     -6289.9671      8.5020935    
    174000   359.27562      9399.8503     -990.60643     -6371.7517      40.077736     -6331.674      -6337.4858      8.4844978    
    175000   346.07219      9398.7924     -2228.2053     -6373.3113      38.604873     -6334.7065     -6347.7777      8.4854528    
    176000   376.19397      9398.2147     -560.07575     -6372.3496      41.965004     -6330.3846     -6333.6699      8.4859743    
    177000   350.66826      9405.7999     -3197.5028     -6371.8202      39.117572     -6332.7027     -6351.474       8.4791309    
    178000   362.97777      9409.9471     -3613.6709     -6371.0306      40.490717     -6330.5399     -6351.7638      8.475394     
    179000   356.03524      9385.8209      3155.3892     -6372.7962      39.716267     -6333.0799     -6314.5951      8.4971799    
    180000   361.07807      9387.7751      2563.4358     -6370.4448      40.278802     -6330.166      -6315.1459      8.4954112    
    181000   356.7519       9388.5029      1828.4556     -6373.72        39.796211     -6333.9238     -6323.2093      8.4947525    
    182000   370.61599      9400.063      -2300.2941     -6371.1459      41.342772     -6329.8031     -6343.2991      8.4843058    
    183000   365.80666      9408.1111     -4115.1867     -6370.3641      40.806284     -6329.5578     -6353.7226      8.477048     
    184000   362.46371      9388.1731      2501.0836     -6371.0081      40.433372     -6330.5747     -6315.9193      8.495051     
    185000   371.96113      9396.1761      643.39909     -6370.6602      41.492823     -6329.1673     -6325.394       8.4878155    
    186000   370.2717       9389.6795      1100.9943     -6372.7346      41.304365     -6331.4303     -6324.9778      8.4936881    
    187000   373.96207      9400.7144     -1199.282      -6372.0297      41.716032     -6330.3137     -6337.3504      8.4837179    
    188000   342.86655      9403.4075     -3840.224      -6372.5453      38.247279     -6334.298      -6356.8369      8.4812882    
    189000   367.41192      9379.313       5591.5937     -6372.2221      40.985353     -6331.2368     -6298.503       8.5030757    
    190000   362.93289      9409.6998     -4921.1994     -6372.2215      40.48571      -6331.7358     -6360.6384      8.4756167    
    191000   367.40072      9395.1001      1658.9542     -6370.7565      40.984103     -6329.7724     -6320.0443      8.4887876    
    192000   365.47704      9381.2773      5870.3237     -6372.7546      40.769513     -6331.985      -6297.6123      8.5012954    
    193000   374.82559      9426.2655     -10084.678     -6371.0877      41.812359     -6329.2754     -6388.6077      8.4607217    
    194000   384.14295      9410.6619     -3313.7657     -6369.6335      42.851724     -6326.7818     -6346.2458      8.4747502    
    195000   358.71822      9377.5137      6677.6621     -6371.7091      40.015557     -6331.6935     -6292.6093      8.5047073    
    196000   364.02562      9410.8582     -3846.5828     -6370.0654      40.607606     -6329.4577     -6352.0518      8.4745734    
    197000   349.62837      9413.2016     -4950.523      -6371.7706      39.001571     -6332.769      -6361.8546      8.4724637    
    198000   367.32089      9402.231      -1591.8147     -6370.578       40.975198     -6329.6028     -6338.9442      8.4823495    
    199000   380.43476      9399.8188     -56.63234      -6370.3372      42.43807      -6327.8991     -6328.2314      8.4845262    
    200000   358.6654       9420.2896     -6419.1992     -6369.8846      40.009665     -6329.8749     -6367.6178      8.4660888    
    201000   363.34867      9423.2306     -6267.4953     -6368.6749      40.532091     -6328.1429     -6365.0052      8.4634466    
    202000   363.67132      9402.3599     -369.87803     -6370.741       40.568083     -6330.1729     -6332.3435      8.4822332    
    203000   364.46714      9397.8214      44.282977     -6371.4946      40.656858     -6330.8377     -6330.578       8.4863295    
    204000   392.14367      9396.7788      481.21316     -6371.0193      43.744216     -6327.2751     -6324.4528      8.4872711    
    205000   387.95121      9367.7219      9243.5532     -6373.6684      43.276542     -6330.3919     -6276.346       8.513597     
    206000   383.35053      9422.9702     -7646.8404     -6371.2765      42.763329     -6328.5132     -6373.487       8.4636805    
    207000   355.57365      9381.9033      6568.359      -6369.2492      39.664776     -6329.5844     -6291.1219      8.5007281    
    208000   377.47064      9384.5938      7069.6609     -6368.959       42.107418     -6326.8516     -6285.4417      8.498291     
    209000   354.9366       9415.3309     -6374.7171     -6371.7297      39.593712     -6332.136      -6369.5976      8.4705476    
    210000   379.37341      9416.5187     -4864.1928     -6370.81        42.319675     -6328.4904     -6357.0788      8.4694791    
    211000   365.58039      9406.8469     -3408.7899     -6370.0403      40.781043     -6329.2592     -6349.2732      8.4781872    
    212000   361.97257      9406.1116     -1687.874      -6369.7081      40.378585     -6329.3295     -6339.2387      8.4788499    
    213000   388.55956      9408.9965     -1864.0208     -6369.3527      43.344404     -6326.0083     -6336.955       8.4762503    
    214000   366.37831      9394.0669      2025.2715     -6370.1641      40.870052     -6329.2941     -6317.4193      8.4897212    
    215000   362.46257      9393.806       3011.1508     -6368.7617      40.433246     -6328.3284     -6310.6736      8.489957     
    216000   363.19195      9399.7069     -220.73182     -6369.1158      40.514609     -6328.6012     -6329.8962      8.4846272    
    217000   362.06434      9386.1005      4856.8385     -6370.7758      40.388823     -6330.387      -6301.9339      8.4969268    
    218000   384.6223       9410.04       -3769.5102     -6369.7195      42.905196     -6326.8143     -6348.9537      8.4753103    
    219000   370.7925       9404.3801     -2175.155      -6370.9964      41.362462     -6329.6339     -6342.4015      8.480411     
    220000   390.05382      9372.157       7272.4637     -6373.3342      43.511091     -6329.8231     -6287.2818      8.5095681    
    221000   379.5373       9414.2294     -3396.5017     -6369.9026      42.337957     -6327.5647     -6347.5222      8.4715387    
    222000   374.98448      9392.9667      3011.5889     -6368.3517      41.830083     -6326.5216     -6308.8658      8.4907156    
    223000   378.13141      9403.7008     -574.78998     -6369.8077      42.181128     -6327.6266     -6331.0002      8.4810236    
    224000   386.58393      9413.9838     -5962.0927     -6370.9655      43.124019     -6327.8415     -6362.8732      8.4717597    
    225000   369.88373      9410.9889     -4828.2849     -6370.5428      41.261087     -6329.2817     -6357.6425      8.4744557    
    226000   386.76778      9415.5586     -4930.0679     -6369.3686      43.144527     -6326.2241     -6355.1967      8.4703428    
    227000   378.92196      9384.6999      5396.9112     -6370.7706      42.269315     -6328.5013     -6296.889       8.4981949    
    228000   378.33988      9421.2034     -5508.6623     -6367.9127      42.204383     -6325.7083     -6358.1006      8.4652678    
    229000   375.38847      9394.0702      2851.6024     -6369.5414      41.875149     -6327.6662     -6310.9464      8.4897182    
    230000   379.3077       9390.7427      2789.6646     -6369.019       42.312345     -6326.7067     -6310.3558      8.4927264    
    231000   363.54706      9394.3082      2831.1156     -6368.9452      40.554222     -6328.391      -6311.7908      8.4895032    
    232000   390.58394      9405.2815     -2777.8606     -6371.0716      43.570226     -6327.5014     -6343.8083      8.4795983    
    233000   392.92311      9396.8454      2615.3966     -6370.3495      43.831165     -6326.5183     -6311.1789      8.4872109    
    234000   370.59489      9407.4822     -2439.1728     -6370.1887      41.340418     -6328.8483     -6343.1704      8.4776147    
    235000   383.81382      9417.6321     -4556.1253     -6368.4222      42.815009     -6325.6071     -6352.3882      8.4684778    
    236000   358.04975      9396.8897      1875.152      -6369.9157      39.940989     -6329.9747     -6318.9768      8.4871709    
    237000   380.59473      9394.077       3332.7514     -6368.867       42.455915     -6326.4111     -6306.8701      8.4897121    
    238000   363.68146      9410.7048     -4210.3733     -6369.0256      40.569215     -6328.4564     -6353.1869      8.4747115    
    239000   388.5935       9392.301       2970.5065     -6370.2067      43.34819      -6326.8585     -6309.4448      8.4913174    
    240000   379.3102       9400.5053      907.3316      -6369.483       42.312623     -6327.1704     -6321.8468      8.4839066    
    241000   401.2201       9421.7877     -8067.8645     -6371.402       44.756706     -6326.6453     -6374.0894      8.4647427    
    242000   394.44726      9407.4133     -1670.6937     -6367.9539      44.001186     -6323.9527     -6333.7624      8.4776767    
    243000   402.69461      9392.4621      4001.4153     -6370.9585      44.92119      -6326.0373     -6302.5798      8.4911717    
    244000   375.19712      9396.7731      3236.5122     -6368.6057      41.853804     -6326.7519     -6307.7697      8.4872762    
    245000   395.33168      9389.8473      4695.1626     -6369.1654      44.099844     -6325.0656     -6297.5487      8.4935363    
    246000   386.86559      9434.5147     -9697.8147     -6367.6848      43.155439     -6324.5294     -6381.6355      8.4533239    
    247000   368.82562      9416.1226     -4621.5495     -6369.9055      41.143053     -6328.7625     -6355.9237      8.4698355    
    248000   398.33188      9386.6472      6555.8733     -6367.9875      44.434521     -6323.553      -6285.1442      8.4964319    
    249000   387.40765      9397.2574      1590.8505     -6370.8719      43.215907     -6327.656      -6318.3251      8.4868389    
    250000   382.61774      9390.3056      7063.6775     -6366.838       42.681585     -6324.1564     -6282.7565      8.4931218    
    251000   378.61462      9406.8386     -2189.4985     -6368.7977      42.235031     -6326.5627     -6339.4179      8.4781947    
    252000   395.43658      9362.9412      12531.389     -6371.9753      44.111545     -6327.8638     -6254.6317      8.517944     
    253000   399.33271      9390.2069      3737.3643     -6369.3059      44.546165     -6324.7597     -6302.8554      8.493211     
    254000   382.96658      9409.5659     -3050.5273     -6369.1694      42.720498     -6326.4489     -6344.3647      8.4757374    
    255000   409.18468      9418.6086     -3801.8786     -6367.3515      45.645167     -6321.7064     -6344.0562      8.4675999    
    256000   382.71543      9410.1687     -2431.3906     -6369.0389      42.692482     -6326.3464     -6340.6269      8.4751944    
    257000   402.05049      9374.506       8824.4874     -6370.3584      44.849338     -6325.5091     -6273.8761      8.5074359    
    258000   386.85777      9396.8938      2060.5968     -6368.8018      43.154567     -6325.6473     -6313.5617      8.4871672    
    259000   384.95601      9411.2367     -1767.9005     -6369.2777      42.942423     -6326.3353     -6336.72        8.4742326    
    260000   382.33154      9411.1086     -844.7792      -6366.1086      42.649659     -6323.4589     -6328.4211      8.474348     
    261000   389.41346      9395.2382      4082.2204     -6369.8824      43.439657     -6326.4427     -6302.5044      8.4886628    
    262000   416.35426      9397.7127      1183.7867     -6369.0075      46.444944     -6322.5626     -6315.619       8.4864276    
    263000   388.57558      9429.9847     -10726.905     -6369.2503      43.34619      -6325.9041     -6389.0398      8.4573847    
    264000   386.95124      9410.6985     -2475.2738     -6368.7104      43.164993     -6325.5454     -6340.0844      8.4747172    
    265000   379.58631      9402.7779      126.39106     -6369.206       42.343424     -6326.8626     -6326.1208      8.4818561    
    266000   419.24684      9389.1216      6211.008      -6368.6758      46.767616     -6321.9082     -6285.5103      8.4941928    
    267000   389.42246      9401.9209     -1768.8599     -6369.0534      43.440662     -6325.6128     -6335.9928      8.4826292    
    268000   384.3908       9422.1697     -6077.4095     -6368.9653      42.879373     -6326.086      -6361.8263      8.4643996    
    269000   381.51433      9392.0314      4805.964      -6367.5283      42.558497     -6324.9698     -6296.797       8.4915612    
    270000   380.29971      9416.364      -3598.1905     -6368.3783      42.423005     -6325.9553     -6347.1027      8.4696183    
    271000   396.5627       9424.4514     -5951.0491     -6366.5679      44.237167     -6322.3307     -6357.3364      8.4623503    
    272000   392.15425      9400.0456      1156.7706     -6367.8071      43.745396     -6324.0617     -6317.2749      8.4843215    
    273000   373.06258      9404.8794      2804.2473     -6366.3677      41.615693     -6324.752      -6308.2908      8.4799609    
    274000   407.31017      9414.8382     -4721.6135     -6369.4506      45.436063     -6324.0145     -6351.76        8.4709909    
    275000   375.72068      9406.8557      1369.4618     -6368.1213      41.912207     -6326.2091     -6318.1686      8.4781792    
    276000   382.96937      9408.6035     -588.5733      -6366.1977      42.72081      -6323.4769     -6326.9332      8.4766043    
    277000   395.19982      9395.4539      2360.2311     -6369.0594      44.085135     -6324.9742     -6311.1334      8.4884679    
    278000   392.2072       9437.8125     -10428.292     -6366.1144      43.751304     -6322.3631     -6383.7922      8.4503701    
    279000   381.33422      9396.0261      2618.9299     -6368.4949      42.538406     -6325.9565     -6310.5977      8.487951     
    280000   395.61995      9402.9169      534.2904      -6368.2885      44.132001     -6324.1565     -6321.0209      8.4817307    
    281000   385.84078      9406.0318      1470.4702     -6366.4791      43.04112      -6323.438      -6314.8051      8.4789219    
    282000   393.8362       9396.9839      5126.698      -6364.3819      43.933021     -6320.4489     -6290.3801      8.4870858    
    283000   396.96454      9431.6737     -9567.7378     -6368.4886      44.281992     -6324.2066     -6380.5299      8.4558703    
    284000   409.0278       9403.0625     -153.25792     -6367.1435      45.627667     -6321.5158     -6322.4153      8.4815993    
    285000   393.62556      9410.7775     -2645.1721     -6367.0543      43.909524     -6323.1447     -6338.6818      8.4746461    
    286000   388.20752      9400.8216      1722.7788     -6368.2481      43.305133     -6324.9429     -6314.8345      8.4836212    
    287000   404.63392      9400.0987      1788.9515     -6368.8783      45.137523     -6323.7408     -6313.2449      8.4842736    
    288000   412.02022      9394.9438      4807.3539     -6367.577       45.961476     -6321.6155     -6293.4259      8.4889288    
    289000   406.12574      9384.1857      7490.497      -6368.9109      45.303938     -6323.6069     -6279.734       8.4986606    
    290000   400.64948      9424.1861     -5391.4025     -6368.0138      44.693052     -6323.3208     -6355.0336      8.4625885    
    291000   427.06073      9424.1693     -4840.287      -6367.8779      47.639267     -6320.2386     -6348.7097      8.4626036    
    292000   394.95971      9413.97       -1805.8687     -6366.8107      44.05835      -6322.7523     -6333.3631      8.4717722    
    293000   388.03532      9393.2523      4777.6514     -6366.5957      43.285924     -6323.3097     -6295.2993      8.4904575    
    294000   408.86604      9395.9919      2879.658      -6366.8204      45.609623     -6321.2108     -6304.323       8.4879819    
    295000   387.02544      9433.3871     -9038.4903     -6367.2938      43.17327      -6324.1205     -6377.3379      8.4543344    
    296000   427.64829      9404.2514      1764.9775     -6363.8912      47.704811     -6316.1864     -6305.8266      8.4805271    
    297000   404.79829      9406.9332     -142.81581     -6367.62        45.155859     -6322.4642     -6323.3027      8.4781094    
    298000   413.09403      9420.9875     -3212.9839     -6364.5421      46.081261     -6318.4608     -6337.3535      8.4654617    
    299000   398.40155      9429.5439     -6577.9207     -6366.6664      44.442292     -6322.2242     -6360.9382      8.4577801    
    300000   415.83575      9400.2261      3664.4222     -6366.879       46.387104     -6320.4919     -6298.9921      8.4841585    
    301000   392.78591      9426.0819     -4936.9571     -6366.6643      43.81586      -6322.8485     -6351.8941      8.4608865    
    302000   400.98095      9405.8012      2259.1443     -6365.6788      44.730029     -6320.9487     -6307.6861      8.4791298    
    303000   407.81947      9392.7928      4226.3456     -6368.6828      45.492876     -6323.1899     -6298.4129      8.4908728    
    304000   400.9077       9406.9406     -2354.1025     -6367.3132      44.721857     -6322.5914     -6336.4131      8.4781028    
    305000   411.88028      9411.9572      223.23441     -6367.1665      45.945865     -6321.2206     -6319.9092      8.4735839    
    306000   396.79108      9413.4818     -3400.1323     -6368.3306      44.262642     -6324.0679     -6344.0452      8.4722115    
    307000   397.70498      9403.0398      1764.6932     -6366.2142      44.364589     -6321.8496     -6311.4928      8.4816198    
    308000   416.74784      9405.4186      2419.2839     -6366.109       46.488848     -6319.6201     -6305.418       8.4794747    
    309000   402.2431       9400.7068      2027.943      -6367.2229      44.870824     -6322.3521     -6310.4532      8.4837247    
    310000   421.72765      9374.7088      9897.0372     -6367.0497      47.044354     -6320.0053     -6262.0954      8.5072518    
    311000   400.03435      9398.7498      2542.4096     -6366.8178      44.624434     -6322.1934     -6307.279       8.4854912    
    312000   412.77251      9413.0075     -73.3792       -6364.4562      46.045395     -6318.4108     -6318.8419      8.4726384    
    313000   408.12883      9411.1699     -1616.4829     -6367.9219      45.527386     -6322.3945     -6331.8897      8.4742927    
    314000   419.5882       9398.0299      5465.0449     -6365.3344      46.805695     -6318.5287     -6286.4719      8.4861412    
    315000   409.39437      9420.0951     -3970.2522     -6367.9116      45.668559     -6322.243      -6345.5863      8.4662637    
    316000   409.96285      9422.154      -5169.1136     -6366.1645      45.731973     -6320.4326     -6350.8313      8.4644136    
    317000   394.70209      9408.0647      326.10149     -6366.3128      44.029612     -6322.2832     -6320.3683      8.4770898    
    318000   414.66334      9406.3637      625.44815     -6366.0639      46.256319     -6319.8076     -6316.1356      8.4786227    
    319000   401.01868      9413.5064     -2874.381      -6368.2968      44.734237     -6323.5625     -6340.4508      8.4721894    
    320000   418.08811      9426.9709     -5335.763      -6364.9303      46.638358     -6318.2919     -6349.6868      8.4600886    
    321000   391.35946      9398.8066      4736.1848     -6365.8847      43.656737     -6322.228      -6294.4442      8.48544      
    322000   407.91387      9420.1081     -3207.9695     -6365.5514      45.503406     -6320.048      -6338.9095      8.466252     
    323000   419.25796      9406.0607     -1585.5658     -6368.7458      46.768856     -6321.977      -6331.2855      8.4788958    
    324000   409.06483      9395.6301      4154.073      -6368.0825      45.631798     -6322.4507     -6298.09        8.4883087    
    325000   417.56962      9417.6314     -1819.9594     -6365.4623      46.58052      -6318.8817     -6329.5795      8.4684785    
    326000   398.14915      9398.4864      3329.9759     -6368.0128      44.414137     -6323.5987     -6304.0648      8.4857291    
    327000   398.66059      9445.9676     -10262.839     -6363.6097      44.471189     -6319.1386     -6379.6453      8.4430746    
    328000   420.5843       9424.1562     -4184.4405     -6363.4213      46.916812     -6316.5045     -6341.1178      8.4626154    
    329000   412.40796      9415.4416     -2831.0646     -6366.6318      46.004729     -6320.6271     -6337.2643      8.470448     
    330000   423.12391      9435.4578     -7332.5109     -6363.4067      47.200109     -6316.2066     -6359.3888      8.452479     
    331000   409.16303      9398.4232      3399.6713     -6364.6101      45.642751     -6318.9674     -6299.0248      8.4857861    
    332000   411.55573      9407.2187      448.26274     -6366.0372      45.909661     -6320.1275     -6317.4955      8.4778521    
    333000   419.66878      9415.3535     -355.88973     -6365.456       46.814684     -6318.6413     -6320.7327      8.4705273    
    334000   408.89688      9405.7554      1770.3701     -6365.4748      45.613063     -6319.8617     -6309.4686      8.4791711    
    335000   434.10896      9404.5972      2686.2632     -6365.9054      48.425508     -6317.4799     -6301.7118      8.4802153    
    336000   384.91856      9414.8585     -5153.9483     -6368.1168      42.938244     -6325.1786     -6355.4647      8.4709726    
    337000   413.73436      9412.6473      1252.6281     -6364.6436      46.15269      -6318.4909     -6311.1318      8.4729627    
    338000   409.6375       9421.9276     -3248.2969     -6365.1842      45.69568      -6319.4886     -6338.5908      8.464617     
    339000   435.83766      9415.4366     -738.67535     -6363.5842      48.618347     -6314.9658     -6319.3068      8.4704526    
    340000   428.81461      9416.0763     -467.52699     -6365.8701      47.834915     -6318.0352     -6320.7828      8.4698771    
    341000   425.03757      9383.5629      10623.419     -6365.22        47.413581     -6317.8064     -6255.5876      8.4992246    
    342000   431.01633      9419.5636     -3388.9865     -6366.57        48.08052      -6318.4895     -6338.4141      8.4667414    
    343000   435.23592      9424.8386     -4575.2574     -6364.2618      48.551222     -6315.7106     -6342.6247      8.4620027    
    344000   396.43247      9416.1081     -1357.2928     -6365.9395      44.222638     -6321.7169     -6329.6938      8.4698485    
    345000   419.69745      9431.8484     -4382.7974     -6362.9006      46.817882     -6316.0827     -6341.8838      8.4557137    
    346000   414.57326      9389.3843      9066.8022     -6364.3297      46.246271     -6318.0834     -6264.9484      8.4939552    
    347000   434.86789      9411.5038     -1734.0294     -6367.4879      48.510168     -6318.9778     -6329.1638      8.4739921    
    348000   432.57211      9424.6584     -3686.7057     -6364.2081      48.25407      -6315.954      -6337.6408      8.4621644    
    349000   421.79528      9429.6532     -3367.7201     -6364.3148      47.051899     -6317.2629     -6337.0837      8.4576821    
    350000   425.87899      9408.6617      1948.6337     -6364.3145      47.507442     -6316.807      -6305.3638      8.4765519    
    351000   421.94792      9413.9556     -539.48789     -6364.3666      47.068926     -6317.2976     -6320.4675      8.4717851    
    352000   416.91041      9421.4969     -6190.0905     -6366.144       46.506984     -6319.637      -6356.0375      8.465004     
    353000   411.72111      9408.9564      2061.1441     -6362.7302      45.928109     -6316.8021     -6304.6978      8.4762863    
    354000   419.331        9422.6829     -1686.5093     -6365.6523      46.777004     -6318.8753     -6328.794       8.4639386    
    355000   437.31351      9411.3388     -39.855543     -6365.0706      48.78298      -6316.2876     -6316.5218      8.4741407    
    356000   424.33915      9417.1113     -4482.7791     -6368.3461      47.335671     -6321.0104     -6347.3588      8.4689462    
    357000   440.35946      9402.2697      2864.3627     -6364.2314      49.122761     -6315.1086     -6298.2993      8.4823145    
    358000   429.37461      9416.2401     -2723.8745     -6365.351       47.897385     -6317.4536     -6333.4623      8.4697298    
    359000   431.74852      9416.9564     -1691.5908     -6366.7986      48.162198     -6318.6364     -6328.5789      8.4690855    
    360000   441.52065      9406.5728      538.45912     -6364.8573      49.252293     -6315.605      -6312.4436      8.4784342    
    361000   417.79888      9406.7222      2591.6156     -6365.0933      46.606094     -6318.4872     -6303.2713      8.4782996    
    362000   434.32561      9397.2719      7273.1437     -6362.3422      48.449676     -6313.8925     -6271.2332      8.4868258    
    363000   435.43579      9417.8489     -2935.1614     -6366.0402      48.573518     -6317.4667     -6334.72        8.4682829    
    364000   424.49526      9414.46        1528.621      -6364.168       47.353085     -6316.8149     -6307.8327      8.4713312    
    365000   420.51504      9420.7178     -3475.2414     -6364.5426      46.909086     -6317.6335     -6338.0678      8.4657041    
    366000   418.69861      9443.7425     -12104.835     -6365.6368      46.70646      -6318.9303     -6390.2801      8.4450639    
    367000   423.23301      9407.7813      1822.1527     -6363.65        47.212279     -6316.4378     -6305.7383      8.4773451    
    368000   452.05398      9407.884       1852.7755     -6364.4652      50.427302     -6314.0379     -6303.1585      8.4772526    
    369000   422.19856      9410.6006      1355.0121     -6364.3214      47.096885     -6317.2245     -6309.2657      8.4748054    
    370000   442.88405      9446.9723     -10728.708     -6363.6081      49.404382     -6314.2037     -6377.4638      8.4421767    
    371000   406.21638      9425.1727     -4876.3542     -6363.6367      45.314048     -6318.3226     -6347.0089      8.4617026    
    372000   451.65319      9413.2526      1622.1395     -6364.6335      50.382594     -6314.2509     -6304.7203      8.4724178    
    373000   423.67378      9409.9367      2140.675      -6365.0715      47.261448     -6317.81       -6305.2374      8.4754033    
    374000   429.28483      9407.8358      1334.4493     -6364.3243      47.887369     -6316.4369     -6308.6011      8.477296     
    375000   421.16059      9412.6537      843.84936     -6363.2171      46.981097     -6316.236      -6311.2785      8.4729569    
    376000   458.66437      9397.1811      8293.4423     -6362.7036      51.1647       -6311.5389     -6262.8957      8.4869078    
    377000   436.34235      9421.3938     -1203.8025     -6363.672       48.674646     -6314.9973     -6322.0761      8.4650967    
    378000   420.9087       9427.8851     -5161.3045     -6363.9333      46.952999     -6316.9803     -6347.3516      8.4592683    
    379000   403.50906      9408.5238      4156.3819     -6362.1344      45.012042     -6317.1224     -6292.7147      8.4766761    
    380000   450.54739      9409.1324      2188.3631     -6364.1724      50.25924      -6313.9132     -6301.0615      8.4761278    
    381000   440.40562      9428.6714     -4958.9563     -6365.6721      49.12791      -6316.5441     -6345.7272      8.4585628    
    382000   452.18746      9427.819      -2730.8573     -6361.293       50.442192     -6310.8508     -6326.9203      8.4593276    
    383000   423.27825      9440.7295     -8891.877      -6364.1392      47.217326     -6316.9219     -6369.3167      8.4477592    
    384000   432.38125      9413.5424      1555.6414     -6361.7535      48.23278      -6313.5208     -6304.3806      8.472157     
    385000   429.3906       9437.2697     -9908.8458     -6363.587       47.899167     -6315.6879     -6374.0538      8.4508562    
    386000   460.74294      9406.6857      4189.1389     -6363.2481      51.396568     -6311.8515     -6287.2563      8.4783325    
    387000   427.24886      9403.3237      3091.6887     -6363.296       47.660253     -6315.6357     -6297.4903      8.4813637    
    388000   424.08327      9437.0464     -5454.0241     -6360.1041      47.307127     -6312.7969     -6344.9219      8.4510561    
    389000   414.99243      9410.9522      993.43729     -6364.6304      46.293031     -6318.3373     -6312.502       8.4744888    
    390000   429.77069      9412.0724      1772.2818     -6362.3381      47.941568     -6314.3966     -6303.9852      8.4734802    
    391000   423.76116      9420.1186     -628.45204     -6362.9389      47.271195     -6315.6677     -6319.3628      8.4662425    
    392000   464.05135      9405.8426      3826.9371     -6362.2814      51.765626     -6310.5158     -6288.0491      8.4790924    
    393000   432.72129      9410.7874      1703.5418     -6363.5805      48.270711     -6315.3098     -6305.3036      8.4746372    
    394000   445.065        9431.9855     -5961.8708     -6362.8624      49.647671     -6313.2147     -6348.3122      8.4555907    
    395000   424.47747      9398.8042      4323.5436     -6363.8138      47.351101     -6316.4627     -6291.0996      8.4854421    
    396000   448.45456      9408.7224      4090.4176     -6362.0631      50.025781     -6312.0374     -6288.0165      8.4764972    
    397000   430.54283      9408.4618      3028.9914     -6365.2119      48.027701     -6317.1842     -6299.397       8.476732     
    398000   430.61072      9428.0645     -3302.6931     -6361.4949      48.035274     -6313.4596     -6332.8944      8.4591072    
    399000   408.44419      9408.5202      2138.1463     -6362.5667      45.562564     -6317.0041     -6304.4482      8.4766793    
    400000   438.30604      9422.0008     -3246.8581     -6362.7426      48.893698     -6313.8489     -6332.9428      8.4645513    
    401000   421.71818      9426.5316     -5080.1691     -6363.2964      47.043298     -6316.2531     -6346.1427      8.4604829    
    402000   443.61037      9429.9718     -3683.9196     -6362.8181      49.485405     -6313.3327     -6335.0153      8.4573963    
    403000   425.09772      9418.4652     -275.06557     -6363.8245      47.420291     -6316.4042     -6318.0212      8.4677288    
    404000   457.87309      9432.5707     -5300.6352     -6363.5714      51.076433     -6312.4949     -6343.7016      8.4550661    
    405000   429.49955      9437.7132     -9164.7764     -6364.0463      47.911321     -6316.135      -6370.1206      8.4504591    
    406000   462.48663      9411.4539      2669.589      -6363.8796      51.591079     -6312.2885     -6296.6069      8.474037     
    407000   431.91026      9393.0536      6868.2586     -6365.0202      48.18024      -6316.84       -6276.5736      8.4906371    
    408000   446.6277       9423.2212     -2262.4776     -6362.6907      49.821992     -6312.8687     -6326.1755      8.463455     
    409000   441.27872      9420.0344     -3039.7432     -6364.5798      49.225305     -6315.3545     -6333.2267      8.4663183    
    410000   441.70532      9416.1194      3294.6395     -6360.8666      49.272894     -6311.5937     -6292.2309      8.4698383    
    411000   455.00134      9416.192       922.95883     -6361.3035      50.756084     -6310.5474     -6305.123       8.4697731    
    412000   448.69746      9427.44       -4461.9963     -6364.2377      50.052877     -6314.1848     -6340.4399      8.4596677    
    413000   449.20593      9413.3718      2703.4633     -6360.8986      50.109598     -6310.789      -6294.9051      8.4723105    
    414000   434.33937      9428.1027     -3427.7888     -6361.501       48.45121      -6313.0498     -6333.2208      8.459073     
    415000   448.51111      9438.9326     -3283.472      -6359.9132      50.032089     -6309.8811     -6329.2251      8.4493673    
    416000   432.57715      9434.42       -4571.1751     -6361.4037      48.254632     -6313.1491     -6340.0664      8.4534088    
    417000   441.25756      9436.3553     -4747.4805     -6358.9918      49.222944     -6309.7688     -6337.7301      8.4516751    
    418000   440.4673       9411.8288      4090.059      -6360.6944      49.13479      -6311.5596     -6287.5329      8.4736995    
    419000   427.05125      9418.8725     -10.525251     -6363.3755      47.638209     -6315.7373     -6315.7991      8.4673626    
    420000   446.69939      9440.6484     -6190.0426     -6360.4768      49.82999      -6310.6468     -6347.1209      8.4478317    
    421000   444.90406      9417.7825     -535.19906     -6363.5958      49.629718     -6313.9661     -6317.112       8.4683426    
    422000   453.46938      9435.8602     -7447.3321     -6362.5902      50.585192     -6312.005      -6355.8653      8.4521186    
    423000   471.31125      9418.2548      1337.2847     -6362.0988      52.57548      -6309.5233     -6301.6622      8.4679179    
    424000   446.65235      9409.1333      3402.1669     -6362.9509      49.824742     -6313.1261     -6293.1461      8.476127     
    425000   451.49138      9406.6692      6067.5873     -6360.6373      50.364543     -6310.2728     -6274.6489      8.4783473    
    426000   456.1776       9418.7755     -1868.5424     -6364.7033      50.887298     -6313.816      -6324.8006      8.4674499    
    427000   457.51869      9422.4249      407.94464     -6361.8797      51.036899     -6310.8428     -6308.4436      8.4641703    
    428000   446.72047      9419.7654      1584.9306     -6361.7658      49.832341     -6311.9335     -6302.6151      8.46656      
    429000   477.36306      9400.6242      7051.906      -6363.1527      53.250568     -6309.9021     -6268.5257      8.4837993    
    430000   436.64569      9394.761       5529.5963     -6363.2287      48.708484     -6314.5202     -6282.0961      8.489094     
    431000   467.74922      9415.0531      1588.5459     -6362.6527      52.17813      -6310.4746     -6301.1396      8.4707976    
    432000   435.15735      9425.0108     -2892.3981     -6361.8021      48.542458     -6313.2597     -6330.2746      8.461848     
    433000   468.08288      9447.0714     -10004.298     -6362.5039      52.21535      -6310.2885     -6369.2778      8.4420881    
    434000   443.93707      9454.4406     -12882.86      -6360.4898      49.521848     -6310.968      -6386.9897      8.435508     
    435000   443.39178      9419.1507     -445.59985     -6362.3351      49.461021     -6312.874      -6315.4937      8.4671126    
    436000   473.29598      9439.8008     -5041.1806     -6359.3466      52.796879     -6306.5497     -6336.2516      8.4485903    
    437000   445.83361      9428.5604     -2752.7129     -6361.3565      49.73341      -6311.6231     -6327.8224      8.4586624    
    438000   474.74105      9422.5817     -286.49211     -6360.6229      52.958078     -6307.6648     -6309.3497      8.4640295    
    439000   457.11296      9422.0258     -224.17874     -6361.9631      50.991639     -6310.9715     -6312.2898      8.4645288    
    440000   443.53204      9410.9875      2248.7911     -6363.3559      49.476667     -6313.8792     -6300.6701      8.474457     
    441000   442.79766      9409.6168      5065.4835     -6359.5049      49.394745     -6310.1102     -6280.3605      8.4756915    
    442000   442.65634      9428.8615     -5061.8305     -6362.623       49.378981     -6313.244      -6343.0331      8.4583922    
    443000   458.94065      9420.8419      1296.0333     -6359.565       51.195521     -6308.3695     -6300.7488      8.4655925    
    444000   466.74015      9405.5632      3482.4935     -6362.5777      52.065566     -6310.5121     -6290.0681      8.4793443    
    445000   457.16878      9430.6868     -3776.2592     -6359.6532      50.997865     -6308.6553     -6330.883       8.4567551    
    446000   459.42231      9418.5516      580.38529     -6360.0451      51.24925      -6308.7959     -6305.384       8.4676511    
    447000   460.25924      9418.7361      1078.2838     -6361.4847      51.34261      -6310.142      -6303.8031      8.4674853    
    448000   481.25385      9411.2164      6305.353      -6359.1808      53.684591     -6305.4962     -6268.4585      8.4742508    
    449000   456.93553      9436.2717     -6040.2789     -6362.8514      50.971846     -6311.8795     -6347.4547      8.45175      
    450000   478.972        9411.6769      1704.0989     -6362.3291      53.430048     -6308.8991     -6298.8887      8.4738363    
    451000   452.16251      9401.1588      3297.4605     -6363.0192      50.439408     -6312.5798     -6293.2311      8.4833168    
    452000   473.90072      9415.6974      3315.859      -6362.2312      52.864339     -6309.3669     -6289.8802      8.470218     
    453000   449.19757      9433.2342     -3181.6087     -6360.7062      50.108665     -6310.5975     -6329.3301      8.4544714    
    454000   469.10243      9429.322      -2811.3745     -6360.0454      52.329082     -6307.7163     -6324.2622      8.4579792    
    455000   470.08463      9415.3503      1353.098      -6362.9989      52.438648     -6310.5603     -6302.6087      8.4705302    
    456000   477.72536      9413.5455      4458.225      -6359.7724      53.290983     -6306.4815     -6280.2873      8.4721542    
    457000   439.18228      9415.1157      3991.2692     -6360.6576      48.991444     -6311.6662     -6288.2117      8.4707413    
    458000   465.39462      9433.5099     -3659.7188     -6359.5745      51.91547      -6307.659      -6329.2072      8.4542244    
    459000   447.51463      9444.5105     -8257.8599     -6361.3517      49.920931     -6311.4307     -6360.1092      8.4443772    
    460000   449.35456      9449.9429     -9990.3092     -6360.704       50.126177     -6310.5778     -6369.5026      8.4395229    
    461000   479.08263      9426.7641     -122.93141     -6358.1958      53.442388     -6304.7534     -6305.4767      8.4602742    
    462000   449.99908      9423.9052      121.7925      -6359.5474      50.198075     -6309.3494     -6308.633       8.4628407    
    463000   461.19904      9445.8023     -6713.5319     -6359.0946      51.447447     -6307.6472     -6347.2275      8.4432223    
    464000   456.72408      9416.4764      1298.5728     -6362.8878      50.948259     -6311.9396     -6304.3075      8.4695172    
    465000   466.42191      9424.0327      495.1719      -6359.3668      52.030066     -6307.3367     -6304.4241      8.4627263    
    466000   450.62882      9426.7844     -2139.0928     -6362.3621      50.268323     -6312.0937     -6324.6796      8.460256     
    467000   490.91925      9422.9022     -971.7464      -6361.5904      54.762781     -6306.8277     -6312.5428      8.4637416    
    468000   454.07539      9420.2803      2478.9353     -6359.5768      50.652793     -6308.924      -6294.3487      8.4660972    
    469000   458.36762      9423.1992      1119.4979     -6361.5985      51.131598     -6310.4669     -6303.8826      8.4634748    
    470000   449.61148      9404.6678      7506.027      -6359.8498      50.154837     -6309.6949     -6265.6351      8.4801516    
    471000   454.39746      9440.9475     -5941.1052     -6359.1176      50.688721     -6308.4289     -6343.4373      8.4475641    
    472000   463.86852      9425.2273      59.730731     -6361.1368      51.745232     -6309.3916     -6309.0402      8.4616537    
    473000   477.37611      9411.5049      6535.4359     -6358.2905      53.252024     -6305.0385     -6266.648       8.4739911    
    474000   474.9158       9446.7148     -11156.69      -6361.1721      52.977572     -6308.1945     -6373.9763      8.4424068    
    475000   452.96008      9427.6066      1489.9749     -6358.4016      50.528379     -6307.8732     -6299.1058      8.4595181    
    476000   464.96574      9432.4312     -3298.4928     -6359.1738      51.867628     -6307.3061     -6326.7252      8.4551912    
    477000   447.04687      9441.8007     -5767.6883     -6360.5194      49.868751     -6310.6507     -6344.6403      8.4468007    
    478000   471.29777      9420.6816      697.14245     -6359.2022      52.573976     -6306.6282     -6302.529       8.4657366    
    479000   466.51831      9410.8286      4649.8902     -6360.6716      52.040819     -6308.6307     -6281.3183      8.4746001    
    480000   439.12945      9428.6851     -861.30453     -6359.9486      48.985551     -6310.963      -6316.0317      8.4585504    
    481000   483.96072      9429.1034     -1623.7484     -6360.1832      53.986546     -6306.1967     -6315.7527      8.4581752    
    482000   453.04578      9403.0919      5836.2654     -6360.342       50.537938     -6309.804      -6275.5513      8.4815729    
    483000   460.53032      9417.2033      2194.7361     -6359.4435      51.37285      -6308.0707     -6295.1706      8.4688635    
    484000   472.83731      9442.3562     -2646.1981     -6357.0873      52.745713     -6304.3416     -6319.9368      8.4463038    
    485000   455.21611      9431.2445     -2011.9579     -6358.0369      50.780043     -6307.2569     -6319.1003      8.456255     
    486000   476.31381      9442.916      -5909.4686     -6359.8209      53.133522     -6306.6874     -6341.5166      8.4458031    
    487000   460.44934      9394.6138      9204.5082     -6361.9643      51.363817     -6310.6005     -6256.6284      8.489227     
    488000   469.46188      9432.0981     -1548.846      -6358.4828      52.369179     -6306.1137     -6315.2318      8.4554898    
    489000   448.20929      9432.4965     -3613.3287     -6360.6469      49.998421     -6310.6485     -6331.9212      8.4551326    
    490000   486.03621      9409.0813      6045.2287     -6359.7333      54.218071     -6305.5152     -6270.0135      8.4761738    
    491000   458.15543      9393.6293      10763.553     -6359.9815      51.107928     -6308.8736     -6245.7664      8.4901167    
    492000   474.98511      9423.5438      2881.5334     -6357.1436      52.985304     -6304.1583     -6287.21        8.4631653    
    493000   470.99401      9397.133       10386.913     -6360.4709      52.540091     -6307.9308     -6247.0092      8.4869512    
    494000   493.30867      9401.5398      7114.5044     -6360.3852      55.029325     -6305.3559     -6263.6081      8.4829731    
    495000   455.21504      9415.0645     -563.29056     -6362.9023      50.779923     -6312.1224     -6315.4325      8.4707873    
    496000   464.10813      9428.2253     -2914.1279     -6357.8105      51.771961     -6306.0385     -6323.1871      8.458963     
    497000   466.17156      9424.0822      191.93573     -6359.669       52.002139     -6307.6668     -6306.5378      8.4626818    
    498000   490.40785      9402.1747      8774.6122     -6358.7851      54.705734     -6304.0793     -6252.5866      8.4824003    
    499000   450.41603      9435.4817     -3949.8389     -6359.1109      50.244586     -6308.8663     -6332.1275      8.4524576    
    500000   466.43562      9441.3267     -2834.6566     -6356.189       52.031595     -6304.1574     -6320.8615      8.4472248    
    501000   475.97295      9416.9386      3712.215      -6359.1771      53.095499     -6306.0816     -6284.2627      8.4691015    
    502000   477.04774      9433.4653     -3439.4289     -6359.8298      53.215393     -6306.6144     -6326.8654      8.4542643    
    503000   493.73331      9414.2364      5507.1247     -6356.4415      55.076694     -6301.3648     -6269.0055      8.4715324    
    504000   481.86788      9435.9401     -3214.3118     -6360.3316      53.753087     -6306.5785     -6325.5091      8.452047     
    505000   487.93773      9436.1197     -950.45694     -6355.6947      54.430189     -6301.2645     -6306.8623      8.4518861    
    506000   468.60964      9411.846       6485.1284     -6356.1632      52.274111     -6303.8891     -6265.7928      8.473684     
    507000   478.39906      9454.8467     -6181.6111     -6355.9051      53.366135     -6302.539      -6339.0182      8.4351456    
    508000   497.36903      9417.4285      2747.6454     -6358.9152      55.482263     -6303.4329     -6287.2825      8.4686609    
    509000   483.59588      9404.7806      7221.129      -6359.4683      53.945849     -6305.5224     -6263.1344      8.48005      
    510000   492.61173      9411.4295      4382.6293     -6358.3793      54.95158      -6303.4277     -6277.6835      8.474059     
    511000   469.63823      9437.6261     -3054.7399     -6360.307       52.388851     -6307.9181     -6325.9121      8.450537     
    512000   486.3107       9423.9106      3001.6818     -6358.2852      54.248691     -6304.0365     -6286.3808      8.4628359    
    513000   458.96167      9432.755      -3655.9529     -6359.8108      51.197865     -6308.613      -6330.1373      8.454901     
    514000   484.6796       9416.0625      5119.0346     -6357.2391      54.066739     -6303.1723     -6273.0875      8.4698895    
    515000   494.05048      9466.9704     -11323.55      -6355.6438      55.112075     -6300.5317     -6367.4405      8.4243433    
    516000   473.29418      9440.9367     -3924.1674     -6358.3964      52.796678     -6305.5997     -6328.7232      8.4475737    
    517000   485.96331      9430.071      -453.2186      -6357.4947      54.209939     -6303.2848     -6305.9523      8.4573073    
    518000   486.5677       9439.4913     -6189.1033     -6359.7106      54.277359     -6305.4333     -6341.8974      8.4488672    
    519000   483.3307       9464.9975     -10542.365     -6354.8265      53.916267     -6300.9102     -6363.1902      8.4260993    
    520000   471.72497      9450.9227     -6587.2425     -6357.4086      52.62163      -6304.7869     -6343.6438      8.4386479    
    521000   490.6706       9434.9887     -1041.503      -6355.6715      54.735044     -6300.9365     -6307.0698      8.4528992    
    522000   460.31576      9412.3986      6363.2        -6356.798       51.348916     -6305.4491     -6268.0668      8.4731865    
    523000   474.23638      9448.7505     -5504.5582     -6355.3894      52.901782     -6302.4876     -6334.9505      8.4405879    
    524000   472.4298       9416.3776      5721.7868     -6356.7911      52.700255     -6304.0908     -6270.4625      8.4696061    
    525000   491.56112      9427.3213      481.66018     -6357.9694      54.834382     -6303.135      -6300.3009      8.4597742    
    526000   473.12528      9425.454      -64.698177     -6358.5581      52.777837     -6305.7802     -6306.1608      8.4614502    
    527000   492.06609      9432.8676      1323.5918     -6355.4991      54.890712     -6300.6084     -6292.8157      8.4548       
    528000   467.60232      9435.9541      154.50726     -6356.9991      52.161743     -6304.8373     -6303.9274      8.4520344    
    529000   495.0969       9409.0747      9225.6539     -6355.123       55.228805     -6299.8942     -6245.7148      8.4761798    
    530000   505.95984      9419.7073      3281.8826     -6359.5186      56.440582     -6303.0781     -6283.7828      8.4666123    
    531000   474.66911      9445.9927     -4360.2039     -6358.4015      52.950054     -6305.4514     -6331.158       8.4430521    
    532000   503.75429      9435.336      -2045.302      -6357.6325      56.194549     -6301.4379     -6313.4828      8.4525881    
    533000   472.97587      9415.0573      5477.1961     -6356.5823      52.76117      -6303.8211     -6271.6348      8.4707938    
    534000   480.34559      9412.813       7113.3608     -6356.5374      53.583273     -6302.9541     -6261.163       8.4728135    
    535000   497.81158      9439.3601     -3976.1685     -6359.3028      55.53163      -6303.7712     -6327.1971      8.4489847    
    536000   479.60208      9428.8117      295.14508     -6359.0251      53.500334     -6305.5248     -6303.7878      8.4584369    
    537000   492.61507      9420.3648      3283.1328     -6355.3502      54.951953     -6300.3982     -6281.0943      8.4660213    
    538000   467.2312       9399.8694      6715.5494     -6360.3141      52.120344     -6308.1938     -6268.7941      8.4844805    
    539000   512.0653       9421.2917      2687.3511     -6358.8414      57.121655     -6301.7197     -6285.9173      8.4651884    
    540000   508.16356      9456.1185     -7259.7145     -6355.7963      56.68641      -6299.1098     -6341.957       8.4340112    
    541000   497.08221      9422.4681      197.89673     -6358.2795      55.450269     -6302.8293     -6301.6654      8.4641315    
    542000   511.57095      9444.9238     -2122.3891     -6352.8338      57.066509     -6295.7673     -6308.2789      8.4440077    
    543000   493.80291      9424.5257      2672.7474     -6357.4634      55.084458     -6302.3789     -6286.6569      8.4622835    
    544000   487.92489      9429.8361      1762.2369     -6356.1351      54.428755     -6301.7064     -6291.3345      8.457518     
    545000   490.99483      9418.8375      4135.7142     -6357.8822      54.771212     -6303.111      -6278.798       8.4673941    
    546000   491.23161      9445.564      -1962.6103     -6354.3771      54.797625     -6299.5795     -6311.15        8.4434353    
[...]
   6352000   1724.3745      10056.176     -7355.4239     -6148.4439      192.35657     -5956.0873     -6002.2541      7.9307493    
   6353000   1729.1601      10049.175     -7028.574      -6158.8172      192.89041     -5965.9268     -6010.0114      7.9362746    
   6354000   1746.7935      10043.414     -8512.8415     -6153.6959      194.85744     -5958.8385     -6012.2021      7.9408268    
   6355000   1744.2539      10036.59      -9885.1513     -6163.6195      194.57414     -5969.0454     -6030.9694      7.9462254    
   6356000   1782.4648      9975.7476      6370.1203     -6162.9933      198.83663     -5964.1567     -5924.494       7.9946899    
   6357000   1686.0091      9926.8604      13550.003     -6170.6292      188.07686     -5982.5524     -5898.5985      8.0340617    
   6358000   1761.3569      9988.5794     -3430.3311     -6167.563       196.48201     -5971.081      -5992.4669      7.9844196    
   6359000   1691.1322      9981.5713     -1917.2236     -6171.7196      188.64834     -5983.0712     -5995.0155      7.9900255    
   6360000   1654.0085      9997.6175     -3851.4031     -6164.6288      184.50713     -5980.1216     -6004.1545      7.9772015    
   6361000   1671.3533      10021.69      -15796.184     -6168.3221      186.44197     -5981.8801     -6080.686       7.9580399    
   6362000   1762.1124      10059.193     -10545.06      -6150.0284      196.56629     -5953.4621     -6019.6687      7.9283704    
   6363000   1793.2455      10021.26      -1484.2994     -6159.7634      200.03924     -5959.7242     -5969.0081      7.9583812    
   6364000   1777.0103      9929.301       9296.0063     -6175.0595      198.22818     -5976.8314     -5919.2205      8.0320869    
   6365000   1758.1611      10031.14       148.24068     -6158.0104      196.12551     -5961.8849     -5960.9568      7.9505432    
   6366000   1766.297       10008.557     -2504.1632     -6160.6215      197.03308     -5963.5885     -5979.2316      7.9684819    
   6367000   1726.286       9985.7147     -670.67808     -6166.7414      192.5698      -5974.1716     -5978.3516      7.9867102    
   6368000   1783.4577      9985.7602      10758.258     -6155.9063      198.94739     -5956.9589     -5889.9067      7.9866738    
   6369000   1722.5367      9969.5922      8091.2919     -6160.4386      192.15156     -5968.287      -5917.9387      7.999626     
   6370000   1795.8186      9943.4254      8101.1737     -6175.0778      200.32627     -5974.7516     -5924.4741      8.0206776    
   6371000   1817.016       10058.052     -4703.0423     -6155.9407      202.69087     -5953.2498     -5982.7743      7.9292696    
   6372000   1735.0798      10055.945     -13388.748     -6154.3127      193.55076     -5960.7619     -6044.7954      7.9309316    
   6373000   1751.1443      10028.87      -6873.0054     -6166.3504      195.34278     -5971.0076     -6014.0294      7.9523427    
   6374000   1736.6389      10051.757     -9572.2786     -6149.6045      193.72468     -5955.8799     -6015.9346      7.9342357    
   6375000   1812.5244      10083.289     -4705.6461     -6143.4262      202.18982     -5941.2364     -5970.8514      7.9094239    
   6376000   1720.4336      10036.014     -3122.045      -6152.7814      191.91696     -5960.8644     -5980.4209      7.9466816    
   6377000   1793.1379      10064.174      4419.4137     -6134.2111      200.02724     -5934.1839     -5906.423       7.9244467    
   6378000   1743.7456      10134.633      5695.6232     -6111.152       194.51744     -5916.6346     -5880.6067      7.8693532    
   6379000   1769.1738      10367.497     -599.23982     -6055.2102      197.354       -5857.8562     -5861.7339      7.6926003    
   6380000   1709.2527      10372.575      1937.5572     -6053.8329      190.66971     -5863.1632     -5850.6193      7.6888345    
   6381000   1719.3797      10368.512      1945.6437     -6051.3475      191.79939     -5859.5481     -5846.9569      7.6918471    
   6382000   1827.7555      10330.832      2894.5159     -6067.6623      203.88888     -5863.7735     -5845.1096      7.719902     
   6383000   1797.5688      10333.1        2238.0395     -6064.5876      200.5215      -5864.0661     -5849.632       7.7182071    
   6384000   1791.9355      10303.127      14500.763     -6064.9482      199.8931      -5865.0551     -5771.8049      7.7406602    
   6385000   1776.0381      10287.76       24434.176     -6065.9831      198.11972     -5867.8634     -5710.9687      7.7522226    
   6386000   1812.1188      10372.6       -1030.7738     -6070.6998      202.14457     -5868.5553     -5875.2286      7.6888158    
   6387000   1678.6967      10371.467     -5230.2986     -6078.1509      187.26114     -5890.8897     -5924.7473      7.6896556    
   6388000   1753.0611      10427.675     -7958.3569     -6062.7387      195.55661     -5867.1821     -5918.9786      7.6482065    
   6389000   1757.4554      10359.119      5686.9365     -6077.334       196.0468      -5881.2872     -5844.5174      7.6988212    
   6390000   1721.9466      10366.983     -2077.3188     -6082.0314      192.08573     -5889.9456     -5903.387       7.6929813    
   6391000   1719.7236      10322.743      16553.442     -6073.7944      191.83776     -5881.9566     -5775.3036      7.7259512    
   6392000   1763.4812      10311.754      11391.179     -6082.6922      196.71899     -5885.9732     -5812.6586      7.7341848    
   6393000   1782.5241      10379.394      3961.615      -6070.2122      198.84325     -5871.369      -5845.7044      7.6837828    
   6394000   1707.9042      10392.306     -1316.4938     -6076.963       190.51929     -5886.4437     -5894.9829      7.6742361    
   6395000   1731.5922      10372.422      2953.8349     -6079.8178      193.16172     -5886.6561     -5867.5331      7.6889476    
   6396000   1755.7486      10422.821     -9701.914      -6080.9795      195.8564      -5885.1231     -5948.2381      7.651768     
   6397000   1748.3842      10472.215     -10096.21      -6075.6819      195.03489     -5880.647      -5946.6383      7.615677     
   6398000   1739.4989      10454.692     -8492.144      -6080.5318      194.04372     -5886.488      -5941.9019      7.6284418    
   6399000   1686.6565      10387.343      566.8908      -6092.8728      188.14908     -5904.7237     -5901.0484      7.6779024    
   6400000   1747.7612      10378.748     -307.50676     -6097.7242      194.96539     -5902.7588     -5904.7508      7.6842607    
   6401000   1749.0141      10366.529      6567.1565     -6093.0158      195.10516     -5897.9106     -5855.4193      7.6933186    
   6402000   1751.7511      10398.792      1598.4613     -6082.161       195.41047     -5886.7505     -5876.3758      7.6694497    
   6403000   1754.1295      10354.911      7807.8224     -6095.7532      195.67579     -5900.0775     -5849.6153      7.7019503    
   6404000   1756.1916      10347.022      3603.4444     -6101.6529      195.90582     -5905.7471     -5882.4757      7.7078224    
   6405000   1760.0668      10373.472      8571.5718     -6087.1267      196.3381      -5890.7886     -5835.291       7.6881695    
   6406000   1770.5507      10271.986      11885.568     -6121.7551      197.5076      -5924.2475     -5848.0459      7.7641272    
   6407000   1803.6709      10329.214      3787.9112     -6105.2575      201.2022      -5904.0553     -5879.6347      7.721111     
   6408000   1826.259       10371.903      10660.437     -6096.3788      203.72194     -5892.6569     -5823.6451      7.6893322    
   6409000   1738.5538      10344.11       1554.3706     -6112.1795      193.93829     -5918.2412     -5908.2057      7.7099923    
   6410000   1780.803       10336.696      5731.5436     -6113.1916      198.65125     -5914.5404     -5877.5624      7.7155225    
   6411000   1800.8274      10330.669      8019.9537     -6113.1624      200.885       -5912.2774     -5860.5656      7.7200234    
   6412000   1806.0867      10428.536     -7697.3372     -6109.9216      201.47169     -5908.4499     -5958.5517      7.6475747    
   6413000   1751.8052      10407.089     -9855.9536     -6111.9938      195.4165      -5916.5773     -5980.5976      7.6633353    
   6414000   1727.72        10384.349      2301.049      -6107.0278      192.72976     -5914.298      -5899.384       7.6801166    
   6415000   1772.4782      10429.033      1003.2859     -6102.9018      197.72261     -5905.1792     -5898.6485      7.64721      
   6416000   1711.736       10364.992     -2011.8783     -6124.4923      190.94673     -5933.5455     -5946.561       7.6944591    
   6417000   1790.8805      10402.095     -1726.5206     -6107.4564      199.77541     -5907.681      -5918.8904      7.6670141    
   6418000   1786.5473      10497.229     -12928.889     -6094.8732      199.29204     -5895.5812     -5980.2894      7.59753      
   6419000   1714.3932      10466.448     -8000.1573     -6102.4968      191.24314     -5911.2537     -5963.5158      7.6198732    
   6420000   1850.651       10342.844      4772.7099     -6121.9146      206.44291     -5915.4717     -5884.6614      7.7109358    
   6421000   1754.9128      10455.798     -6663.4713     -6107.9304      195.76317     -5912.1672     -5955.653       7.6276351    
   6422000   1729.7941      10416.555     -4686.99       -6117.2244      192.96114     -5924.2632     -5954.7357      7.6563708    
   6423000   1691.1309      10401.376      1004.4772     -6111.4077      188.6482      -5922.7595     -5916.2384      7.6675444    
   6424000   1701.0888      10414.639      8236.234      -6102.9166      189.75902     -5913.1576     -5859.6196      7.6577798    
   6425000   1816.126       10442.35      -4304.0868     -6104.7249      202.59159     -5902.1333     -5930.1856      7.6374577    
   6426000   1739.2693      10426.211      4837.1696     -6098.1096      194.01811     -5904.0915     -5872.6135      7.6492803    
   6427000   1773.6083      10377.443     -1778.2202     -6118.528       197.84867     -5920.6794     -5932.197       7.6852276    
   6428000   1807.244       10364.372      8711.5799     -6113.966       201.60079     -5912.3652     -5856.0105      7.6949197    
   6429000   1694.0689      10394.221      2337.2445     -6111.2559      188.97593     -5922.28       -5907.1169      7.672822     
   6430000   1840.6059      10360.673      4395.4643     -6123.8343      205.32235     -5918.5119     -5890.0881      7.6976669    
   6431000   1759.9789      10381.265      3505.9466     -6119.2688      196.32829     -5922.9406     -5900.2239      7.6823977    
   6432000   1821.9923      10444.603     -4996.8147     -6105.7906      203.24599     -5902.5446     -5935.1189      7.6358104    
   6433000   1764.4438      10431.672     -264.17742     -6099.3258      196.82636     -5902.4994     -5904.2194      7.6452758    
   6434000   1789.3314      10394.899     -5845.0461     -6122.7363      199.60261     -5923.1337     -5961.0562      7.6723216    
   6435000   1810.2471      10366.948      18028.811     -6116.0128      201.93579     -5914.077      -5797.4209      7.6930077    
   6436000   1807.2681      10425.696      8435.2743     -6102.7223      201.60348     -5901.1188     -5846.2287      7.6496583    
   6437000   1762.9774      10381.23       753.37793     -6121.8532      196.66278     -5925.1905     -5920.309       7.6824242    
   6438000   1798.3866      10414.734     -162.04274     -6114.5857      200.61274     -5913.9729     -5915.0263      7.6577099    
   6439000   1807.4671      10402.916     -4223.7108     -6127.8352      201.62568     -5926.2095     -5953.634       7.6664091    
   6440000   1765.207       10473.158     -6313.5463     -6104.9786      196.9115      -5908.067      -5949.3376      7.6149915    
   6441000   1818.6006      10454.74      -17535.346     -6128.9713      202.86764     -5926.1037     -6040.5277      7.6284066    
   6442000   1759.3095      10432.937     -7281.1816     -6114.6705      196.25362     -5918.4168     -5965.8299      7.644349     
   6443000   1745.3712      10463.952     -9214.8259     -6112.5018      194.69878     -5917.803      -5977.9858      7.6216912    
   6444000   1705.9255      10436.295     -1882.1179     -6114.2259      190.29856     -5923.9274     -5936.1871      7.6418894    
   6445000   1713.9856      10403.288      6144.7345     -6113.324       191.19768     -5922.1263     -5882.2272      7.6661348    
   6446000   1823.8727      10454.073     -1619.5827     -6113.881       203.45575     -5910.4252     -5920.9929      7.6288934    
   6447000   1733.7352      10384.832      13824.327     -6113.6304      193.40078     -5920.2296     -5830.6244      7.6797593    
   6448000   1793.0917      10494.858     -12375.195     -6104.3759      200.02207     -5904.3538     -5985.416       7.599246     
   6449000   1657.3892      10370.32       6381.6889     -6121.1528      184.88426     -5936.2685     -5894.9621      7.6905064    
   6450000   1711.6148      10410.015     -1980.5349     -6117.4651      190.9332      -5926.5319     -5939.4003      7.661181     
   6451000   1752.9614      10452.959     -5202.0753     -6107.0844      195.54548     -5911.5389     -5945.4784      7.6297065    
   6452000   1762.5074      10404.4        4183.2385     -6113.3423      196.61035     -5916.732      -5889.5664      7.6653154    
   6453000   1892.8937      10349.056      9697.0072     -6125.9852      211.15514     -5914.83       -5852.1934      7.7063078    
   6454000   1799.0903      10348.925      8811.1999     -6126.3277      200.69124     -5925.6365     -5868.7224      7.706405     
   6455000   1821.3336      10334.684      19028.036     -6126.8027      203.1725      -5923.6302     -5800.8917      7.7170241    
   6456000   1811.4622      10359.985      4073.629      -6127.8876      202.07133     -5925.8163     -5899.4754      7.6981777    
   6457000   1793.2255      10400.845      19762.407     -6108.5698      200.03701     -5908.5328     -5780.2412      7.6679353    
   6458000   1747.5582      10356.438      3811.1523     -6135.9907      194.94275     -5941.048      -5916.4128      7.7008148    
   6459000   1694.6786      10406.985      4183.0422     -6123.1582      189.04395     -5934.1142     -5906.9431      7.6634119    
   6460000   1778.613       10431.823     -1668.6121     -6116.7932      198.40695     -5918.3863     -5929.2507      7.6451652    
   6461000   1743.4043      10332.735      11595.819     -6130.8218      194.47938     -5936.3424     -5861.5588      7.7184799    
   6462000   1778.5318      10423.564      4907.4769     -6115.8914      198.3979      -5917.4935     -5885.566       7.6512227    
   6463000   1730.3335      10406.937      4315.143      -6122.1815      193.02131     -5929.1602     -5901.1312      7.6634472    
   6464000   1855.2439      10454.618     -4516.3784     -6116.0938      206.95526     -5909.1385     -5938.609       7.628496     
   6465000   1812.5385      10358.672      11059.538     -6129.183       202.19139     -5926.9916     -5855.4875      7.6991536    
   6466000   1794.9062      10326.161      13684.358     -6123.741       200.22449     -5923.5165     -5835.3197      7.7233936    
   6467000   1827.507       10348.717      5934.4598     -6128.2512      203.86115     -5924.39       -5886.0584      7.7065602    
   6468000   1838.2168      10398.836      6072.8159     -6120.244       205.05585     -5915.1881     -5875.7729      7.6694172    
   6469000   1771.567       10411.539      6598.7208     -6114.8394      197.62096     -5917.2184     -5874.3375      7.6600595    
   6470000   1840.6613      10489.205      3281.2381     -6098.8041      205.32854     -5893.4755     -5871.9938      7.6033416    
   6471000   1741.5088      10443.294     -6579.7958     -6122.0556      194.26793     -5927.7876     -5970.676       7.6367673    
   6472000   1883.8109      10422.656      3569.2248     -6113.9631      210.14194     -5903.8211     -5880.6022      7.6518894    
   6473000   1758.5125      10433.235      7883.6953     -6107.0065      196.16472     -5910.8418     -5859.5038      7.6441301    
   6474000   1781.2732      10377.225     -63.677063     -6122.8293      198.70371     -5924.1256     -5924.538       7.6853888    
   6475000   1823.8671      10403.82       853.92445     -6121.5969      203.45512     -5918.1418     -5912.5968      7.6657426    
   6476000   1784.194       10416.356     -4793.4296     -6118.5156      199.02952     -5919.486      -5950.6499      7.6565169    
   6477000   1809.6435      10380.56       5912.3838     -6121.5089      201.86846     -5919.6404     -5881.3339      7.6829195    
   6478000   1726.0104      10384.785      1780.2882     -6120.2723      192.53906     -5927.7333     -5916.194       7.679794     
   6479000   1749.5017      10445.949     -700.09821     -6104.2631      195.15955     -5909.1035     -5913.6681      7.6348262    
   6480000   1732.9726      10450.682      1930.6743     -6105.877       193.3157      -5912.5613     -5899.9679      7.631369     
   6481000   1787.1488      10487.836     -204.51879     -6101.9655      199.35913     -5902.6063     -5903.9451      7.6043339    
   6482000   1849.995       10391.474     -146.41905     -6127.3265      206.36973     -5920.9568     -5921.9065      7.6748502    
   6483000   1841.6253      10458.384     -7967.7277     -6117.5074      205.43608     -5912.0714     -5964.0816      7.6257488    
   6484000   1850.8352      10454.759     -3879.5701     -6111.4252      206.46345     -5904.9617     -5930.2773      7.6283926    
   6485000   1822.9261      10368.503      8968.4521     -6124.4035      203.35015     -5921.0534     -5863.0139      7.6918537    
   6486000   1774.593       10419.647      2405.02       -6108.9546      197.95852     -5910.996      -5895.3551      7.6540987    
   6487000   1777.782       10408.34       1750.5809     -6119.47        198.31426     -5921.1557     -5909.7833      7.6624138    
   6488000   1798.1985      10498.962     -13049.708     -6101.4795      200.59175     -5900.8878     -5986.4017      7.5962758    
   6489000   1787.9548      10582.296     -18984.26      -6090.3326      199.44905     -5890.8835     -6016.2736      7.5364558    
   6490000   1751.6481      10482.454     -12393.797     -6111.5238      195.39898     -5916.1248     -5997.2129      7.6082384    
   6491000   1843.9399      10424.63      -4866.1819     -6123.2478      205.69427     -5917.5535     -5949.2156      7.6504403    
   6492000   1786.9194      10444.805     -3176.2437     -6117.7117      199.33355     -5918.3781     -5939.0845      7.6356631    
   6493000   1880.2604      10406.195      4665.4815     -6122.7609      209.74588     -5913.015      -5882.7126      7.6639937    
   6494000   1870.0667      10389.153      8787.7498     -6126.4709      208.60875     -5917.8622     -5860.8789      7.6765648    
   6495000   1802.8         10382.247      8833.7565     -6135.0144      201.10505     -5933.9094     -5876.6658      7.6816711    
   6496000   1879.8164      10443.933      1277.0839     -6117.4336      209.69635     -5907.7373     -5899.4125      7.6363001    
   6497000   1791.8727      10419.89       11662.119     -6120.4372      199.8861      -5920.5511     -5844.7055      7.6539201    
   6498000   1831.4282      10413.037      5073.1178     -6122.6452      204.29857     -5918.3467     -5885.3749      7.6589579    
   6499000   1876.2822      10373.366      16431.015     -6126.6748      209.3021      -5917.3727     -5810.9893      7.6882476    
   6500000   1796.0024      10401.166     -4172.2122     -6138.6217      200.34677     -5938.2749     -5965.3605      7.667699     
   6501000   1863.068       10442.027     -3181.874      -6131.4046      207.82804     -5923.5765     -5944.3141      7.6376942    
ERROR: Lost atoms: original 864 current 862 (../thermo.cpp:481)
Last command: run                      1000000
