BEGIN_CFG 
 Size
     108
 Supercell
     -0.001934901     -0.000892592     10.553908392
     10.554235336     0.000565152     -0.000000000
     0.000000000     10.553124216     0.000000000
 AtomData:       id       type       cartes_x       cartes_y       cartes_z       fx          fy          fz
                  1        0         5.22596        5.30347        0.04339     0.082428    -0.056144    -0.156893
                  2        0         8.82792        7.09548        1.73228     -0.035676    -0.167410    0.065933
                  3        0         8.83472        5.24746        3.53698     -0.039302    0.207133    -0.088999
                  4        0         8.72083        0.06483        8.86837     0.085041    -0.125647    -0.266690
                  5        0         1.79783        5.29516        10.51898     -0.126261    0.003294    -0.017372
                  6        0         5.26541        8.83241        0.02442     -0.046622    -0.120614    -0.023911
                  7        0         0.02157        1.73839        1.74868     0.062669    0.017941    0.110693
                  8        0         1.71399        3.52902        1.72545     0.031090    -0.050389    0.094666
                  9        0         10.53338        10.54605        3.52494     0.076289    -0.037097    0.083534
                  10        0         0.03379        7.10450        10.50898     0.025555    -0.201437    0.056095
                  11        0         1.79533        7.09856        1.76210     -0.209099    -0.027126    0.068976
                  12        0         1.75437        5.24987        3.52818     -0.101474    0.144151    0.027033
                  13        0         3.52559        7.09528        3.48492     -0.076636    -0.154621    0.139368
                  14        0         5.26079        7.02179        5.27186     0.026826    -0.041754    0.045606
                  15        0         1.77583        1.74885        7.10698     -0.099516    0.068387    -0.154634
                  16        0         8.85951        7.07285        8.75884     -0.026561    -0.003791    0.102864
                  17        0         1.75573        8.73650        3.56330     0.070309    0.181338    -0.165359
                  18        0         5.29485        8.76107        7.01666     -0.057161    0.103978    0.150475
                  19        0         1.75811        3.46133        8.83468     -0.025514    0.129847    -0.086760
                  20        0         5.24635        7.03207        8.77967     -0.134603    0.058539    0.074192
                  21        0         0.08283        8.75148        5.27231     -0.204813    0.133597    0.034548
                  22        1         8.85914        10.47140        1.77964     -0.171497    0.010904    0.108917
                  23        1         3.58152        0.04736        0.01529     -0.222838    -0.122508    0.016013
                  24        1         5.18096        1.72082        0.04401     0.136864    0.114739    -0.094547
                  25        1         5.31259        0.01764        1.68424     -0.099192    0.066706    0.267061
                  26        1         1.76154        1.76117        10.54935     0.065565    -0.085946    0.032758
                  27        1         8.84026        8.77856        10.49889     -0.035964    -0.007590    -0.006493
                  28        1         3.48890        1.80126        1.76220     -0.072704    -0.136475    0.149541
                  29        1         8.74593        3.53775        5.17712     0.163108    -0.073212    0.312739
                  30        1         3.36451        5.27773        1.78939     0.166181    0.021910    0.048612
                  31        1         3.47839        3.54013        3.47630     0.116121    -0.053519    0.017146
                  32        1         8.80794        7.10807        5.38945     0.001348    -0.099206    -0.215055
                  33        1         3.47970        10.52254        6.90203     0.143481    0.041079    0.196881
                  34        1         7.06331        3.52687        7.06364     -0.041778    -0.030151    -0.031990
                  35        1         0.01808        3.58736        3.55606     0.013798    -0.068576    -0.059412
                  36        1         1.81438        3.54533        5.15467     -0.097005    0.028513    0.262813
                  37        1         5.27491        5.31007        6.98902     -0.064822    -0.033949    0.018837
                  38        1         8.77297        8.70595        7.04489     0.026535    0.253454    0.032234
                  39        1         1.79441        0.06225        8.67374     0.063129    -0.205264    0.169608
                  40        1         10.46099        8.77058        1.80857     0.179924    0.044832    0.042847
                  41        1         3.52545        8.69089        5.36180     0.001235    0.068001    -0.243953
                  42        1         3.54771        7.08871        7.04659     -0.176838    -0.148247    0.071642
                  43        1         7.02233        8.75116        8.79959     0.028222    0.087595    -0.057475
                  44        2         8.83881        5.33671        10.52949     -0.058620    -0.033875    0.101606
                  45        2         7.02823        10.53013        3.51347     -0.018131    0.091934    0.024852
                  46        2         3.46325        3.54370        0.05259     -0.010360    -0.006393    -0.141450
                  47        2         7.02803        7.08102        10.51999     0.057490    -0.088184    0.113173
                  48        2         5.27594        10.47145        5.29196     -0.041106    0.177922    -0.104998
                  49        2         7.00976        1.83941        5.24884     0.043006    -0.246594    0.073125
                  50        2         7.01680        8.77902        1.77384     0.070273    -0.082199    0.022790
                  51        2         7.01127        7.02872        3.51429     0.139621    -0.017238    -0.055502
                  52        2         3.44347        1.80177        5.28673     0.114313    -0.074701    -0.051591
                  53        2         5.23103        1.74725        7.01252     -0.011069    -0.086988    -0.046845
                  54        2         8.82455        5.31553        7.07079     0.036700    -0.082486    -0.029827
                  55        2         5.24383        10.54096        8.81692     -0.072457    -0.082966    -0.174422
                  56        2         3.55647        8.74976        1.75260     -0.112625    0.174953    0.018920
                  57        2         3.50431        3.50937        7.03895     -0.003238    0.057021    -0.022343
                  58        2         10.54019        7.09173        3.54031     0.036393    -0.184938    0.010738
                  59        2         1.74651        7.08572        5.26276     0.041059    -0.194467    0.073545
                  60        2         0.01636        1.74739        8.80999     -0.113828    0.040647    -0.123764
                  61        2         10.51236        7.06296        7.03545     0.224886    -0.033187    -0.015964
                  62        2         1.76305        8.78898        6.99809     -0.043476    -0.096227    0.183372
                  63        2         10.53842        5.31767        8.82572     0.057901    -0.103223    -0.120307
                  64        2         1.81701        7.03526        8.83715     -0.125744    -0.009037    -0.148253
                  65        2         0.03285        8.79959        8.82137     -0.075114    0.018638    -0.182415
                  66        3         6.98722        10.45215        0.00422     0.064627    0.098759    0.039515
                  67        3         8.84363        1.62279        0.08911     -0.030017    0.161013    -0.044447
                  68        3         7.22286        3.49341        10.43446     -0.163008    -0.039280    0.157759
                  69        3         8.84145        1.69720        3.50479     -0.074552    0.045183    0.012390
                  70        3         0.01446        0.00861        10.53670     0.156419    -0.052169    -0.028396
                  71        3         5.23955        3.53140        1.62812     0.150062    0.000339    0.168483
                  72        3         7.14760        3.53697        3.57225     -0.211060    -0.066115    -0.227396
                  73        3         0.07934        3.52437        10.54806     -0.224486    0.086991    -0.044887
                  74        3         3.50780        7.03858        0.03287     0.043657    0.066338    -0.084734
                  75        3         5.31333        6.93173        1.71802     0.033593    0.093075    0.054464
                  76        3         5.28078        5.34055        3.55704     0.006322    -0.153072    -0.060757
                  77        3         1.77376        10.52851        5.33165     -0.126593    0.073017    -0.150733
                  78        3         5.24722        3.49782        5.34832     -0.030417    0.017334    -0.079134
                  79        3         6.96015        1.65316        8.73516     0.048622    0.067018    0.003331
                  80        3         8.74497        3.52671        8.73984     0.177140    -0.011261    0.027093
                  81        3         1.66828        8.73876        0.02423     0.201418    0.280636    0.050136
                  82        3         5.25734        8.76780        3.49106     -0.028809    0.090208    -0.013244
                  83        3         6.95073        8.76790        5.28822     0.167680    0.021136    -0.048954
                  84        3         7.00993        6.99761        7.10265     0.007147    -0.017154    -0.124086
                  85        3         3.51936        1.81089        8.73776     0.038930    0.004193    0.019767
                  86        3         6.99319        5.40520        8.83257     0.057869    -0.120263    0.033147
                  87        3         3.50459        5.21994        8.80769     0.040188    -0.024239    -0.082984
                  88        4         7.04088        1.75931        1.75296     -0.010295    0.090811    0.061168
                  89        4         8.84531        3.51848        1.76277     -0.030474    0.009309    -0.027736
                  90        4         8.79842        10.51294        5.26372     0.001556    0.051499    0.084241
                  91        4         1.73745        10.53046        1.78078     0.067363    -0.093807    0.049786
                  92        4         7.08100        5.23696        1.74166     0.101081    0.082267    -0.038361
                  93        4         3.51251        10.53472        3.53886     0.040535    0.031851    -0.023022
                  94        4         5.27513        1.78131        3.52116     0.046384    -0.097121    0.020541
                  95        4         7.01433        10.49988        7.02217     0.118368    0.174820    0.003852
                  96        4         8.79447        1.75355        7.03529     -0.002187    -0.022775    -0.126790
                  97        4         1.73730        1.76269        3.54111     0.052828    -0.079297    -0.159934
                  98        4         8.78961        8.76335        3.56140     -0.054054    0.009725    0.025769
                  99        4         7.07125        5.30974        5.29191     0.018816    0.056406    -0.002474
                  100        4         0.01040        5.32085        1.76850     -0.031815    0.149767    0.019180
                  101        4         0.05005        1.79447        5.27140     -0.132917    -0.051584    0.117706
                  102        4         3.48197        5.31943        5.25355     0.026287    -0.022524    0.057045
                  103        4         10.54799        10.52517        7.05019     -0.065812    0.010696    -0.056301
                  104        4         5.31285        3.51712        8.80690     -0.036252    0.056291    -0.012143
                  105        4         10.51111        5.28458        5.28509     0.129964    0.032375    0.082502
                  106        4         0.02790        3.51648        7.04975     -0.059399    -0.003387    -0.067258
                  107        4         1.76073        5.26411        7.03399     -0.050100    0.092077    -0.030771
                  108        4         3.47720        8.80522        8.82748     0.031463    0.028384    -0.093178
 Energy
     -836.316629
 PlusStress:    xx          yy          zz          yz          xz          xy 
              -42.664      -39.242      -40.443      1.043      -2.267      -0.385   
 Feature    EFS_by	VASP
END_CFG


BEGIN_CFG 
 Size
     108
 Supercell
     -0.004352026     -0.002026980     10.553652477
     10.554385422     0.001279315     -0.000000000
     0.000000000     10.551897826     0.000000000
 AtomData:       id       type       cartes_x       cartes_y       cartes_z       fx          fy          fz
                  1        0         5.22785        5.29715        0.06122     0.076837    -0.007866    -0.279192
                  2        0         8.81371        7.09634        1.73094     0.077909    -0.197333    0.079948
                  3        0         8.83410        5.25237        3.53535     -0.056611    0.153444    -0.081725
                  4        0         8.72316        0.06612        8.87111     0.028325    -0.140343    -0.299326
                  5        0         1.79094        5.29433        10.52551     -0.089605    -0.026880    -0.097157
                  6        0         5.26401        8.82941        0.01844     -0.043713    -0.104038    0.033415
                  7        0         0.02155        1.73866        1.75395     0.033563    -0.007694    0.102302
                  8        0         1.70473        3.52790        1.72504     0.116515    -0.091289    0.103519
                  9        0         10.53850        10.54803        3.52643     0.022113    -0.080279    0.081954
                  10        0         0.02014        7.10669        10.50861     0.126761    -0.212487    0.051380
                  11        0         1.80246        7.08942        1.76264     -0.294156    0.058664    0.060720
                  12        0         1.75137        5.25937        3.52779     -0.126723    0.058418    0.027523
                  13        0         3.52740        7.10501        3.47569     -0.082938    -0.215537    0.240097
                  14        0         5.25863        7.02134        5.26214     0.042353    -0.031156    0.122125
                  15        0         1.77166        1.75809        7.09949     -0.045429    -0.016343    -0.088073
                  16        0         8.86140        7.06207        8.75492     -0.071971    0.081463    0.113908
                  17        0         1.74984        8.72845        3.56975     0.101297    0.236640    -0.233778
                  18        0         5.29328        8.75680        7.01830     -0.070604    0.099019    0.147895
                  19        0         1.75859        3.45800        8.82839     0.007799    0.130470    -0.013924
                  20        0         5.25237        7.03017        8.78517     -0.219500    0.034713    0.043929
                  21        0         0.07950        8.74421        5.27430     -0.244420    0.179226    0.037914
                  22        1         8.86258        10.46575        1.76810     -0.169450    0.023918    0.200423
                  23        1         3.57678        0.04842        0.01406     -0.198685    -0.096850    0.038511
                  24        1         5.18718        1.72795        0.04500     0.117292    0.067138    -0.053733
                  25        1         5.31504        0.00945        1.68274     -0.155961    0.146519    0.269440
                  26        1         1.75261        1.75680        10.54746     0.123429    -0.077789    0.027544
                  27        1         8.83524        8.77700        10.50591     -0.003018    -0.019944    -0.073659
                  28        1         3.49185        1.80048        1.75777     -0.097160    -0.156725    0.173986
                  29        1         8.74643        3.53776        5.17221     0.148149    -0.114057    0.330596
                  30        1         3.35499        5.27196        1.78574     0.240044    0.047568    0.127632
                  31        1         3.47541        3.54206        3.47892     0.108054    -0.050883    0.017035
                  32        1         8.80517        7.10281        5.38837     0.020639    -0.040527    -0.175741
                  33        1         3.48308        10.51811        6.90269     0.103364    0.094247    0.228437
                  34        1         7.06673        3.53188        7.06245     -0.039194    -0.097993    -0.006884
                  35        1         0.01161        3.58139        3.55245     0.064384    -0.012906    -0.011195
                  36        1         1.81671        3.54425        5.15451     -0.109479    0.066680    0.243299
                  37        1         5.27189        5.29664        6.99014     -0.064823    0.045655    0.008481
                  38        1         8.77673        8.71118        7.04418     -0.012929    0.156205    0.038458
                  39        1         1.77970        0.06864        8.66452     0.178662    -0.242526    0.212673
                  40        1         10.46392        8.76054        1.80957     0.204394    0.093485    0.046756
                  41        1         3.52206        8.69380        5.37223     0.011310    0.015782    -0.351791
                  42        1         3.55036        7.08998        7.04556     -0.223510    -0.174057    0.090073
                  43        1         7.01476        8.74685        8.80346     0.106754    0.112691    -0.094780
                  44        2         8.84443        5.34336        10.52719     -0.160118    -0.121315    0.106259
                  45        2         7.02767        10.52650        3.51299     -0.031718    0.134410    0.035952
                  46        2         3.46736        3.53981        0.05956     -0.086419    0.016686    -0.204903
                  47        2         7.02363        7.08325        10.51892     0.076338    -0.162087    0.130685
                  48        2         5.28028        10.47848        5.29644     -0.098585    0.121125    -0.159938
                  49        2         7.00301        1.83481        5.25022     0.088818    -0.208755    0.041935
                  50        2         7.02034        8.78279        1.77572     0.042828    -0.143703    0.003084
                  51        2         7.01752        7.02352        3.51860     0.092923    0.019022    -0.098880
                  52        2         3.44278        1.80120        5.28488     0.126551    -0.076140    -0.015720
                  53        2         5.24254        1.75092        7.01512     -0.107578    -0.105637    -0.072461
                  54        2         8.82390        5.31362        7.06647     0.026780    -0.078783    0.034399
                  55        2         5.24288        10.54008        8.82053     -0.093580    -0.102694    -0.206782
                  56        2         3.56330        8.74787        1.74981     -0.182190    0.197742    0.011072
                  57        2         3.49999        3.51014        7.03755     0.048394    0.006696    0.004745
                  58        2         10.52899        7.09220        3.53821     0.103691    -0.228764    0.022361
                  59        2         1.73645        7.07993        5.26335     0.112135    -0.160205    0.086212
                  60        2         0.01645        1.74338        8.81051     -0.151334    0.086859    -0.127633
                  61        2         10.51243        7.05353        7.04443     0.213794    0.040671    -0.104420
                  62        2         1.75571        8.78979        6.99768     -0.002402    -0.114426    0.206639
                  63        2         10.54386        5.32691        8.82836     0.012827    -0.226515    -0.138688
                  64        2         1.82032        7.02912        8.82949     -0.150241    -0.009567    -0.093651
                  65        2         0.04121        8.80170        8.82160     -0.185904    -0.019546    -0.183828
                  66        3         6.98647        10.44996        0.00133     0.056655    0.089706    0.053038
                  67        3         8.83626        1.62348        0.08987     0.012255    0.187092    -0.059653
                  68        3         7.21775        3.50042        10.43996     -0.130137    -0.085614    0.133491
                  69        3         8.84367        1.69473        3.50731     -0.105327    0.064196    0.001657
                  70        3         0.00267        0.00689        10.53837     0.235501    -0.054109    -0.034375
                  71        3         5.24790        3.53643        1.63238     0.094831    -0.057354    0.164734
                  72        3         7.14208        3.53947        3.57340     -0.168755    -0.129902    -0.233945
                  73        3         0.08370        3.51448        10.55333     -0.260133    0.125833    -0.122885
                  74        3         3.50650        7.03291        0.03916     0.051071    0.083882    -0.122608
                  75        3         5.31304        6.92809        1.72039     0.053147    0.109985    0.070428
                  76        3         5.28001        5.33571        3.56187     -0.002899    -0.132368    -0.082659
                  77        3         1.77769        10.52661        5.33202     -0.167333    0.060518    -0.138938
                  78        3         5.24644        3.50330        5.34258     -0.063331    -0.020636    -0.058647
                  79        3         6.95239        1.65308        8.73308     0.130568    0.061913    -0.002950
                  80        3         8.74360        3.51983        8.73637     0.162833    0.042495    0.066647
                  81        3         1.66644        8.72926        0.01764     0.218537    0.370134    0.150114
                  82        3         5.26385        8.76671        3.48956     -0.081360    0.104061    0.013988
                  83        3         6.94939        8.76694        5.29005     0.185757    -0.020041    -0.048092
                  84        3         7.00657        6.99887        7.11165     0.002367    -0.047860    -0.192749
                  85        3         3.53007        1.80325        8.74669     -0.071720    0.041648    -0.045132
                  86        3         6.98774        5.39983        8.83026     0.102498    -0.092625    0.058124
                  87        3         3.50310        5.22196        8.80660     0.042863    -0.064543    -0.061694
                  88        4         7.04257        1.74847        1.75127     -0.011527    0.176871    0.113898
                  89        4         8.84917        3.52064        1.76239     -0.094128    -0.039122    -0.030924
                  90        4         8.79545        10.51128        5.26446     0.011928    0.062580    0.069048
                  91        4         1.73826        10.53864        1.78189     0.049182    -0.199141    0.029926
                  92        4         7.08106        5.22723        1.74255     0.133660    0.178346    -0.030721
                  93        4         3.50969        10.53310        3.53826     0.075222    0.012291    -0.014262
                  94        4         5.26637        1.78879        3.51662     0.119807    -0.166180    0.038374
                  95        4         7.00436        10.48734        7.01982     0.227413    0.282363    0.085017
                  96        4         8.80004        1.74621        7.03720     -0.095249    0.042430    -0.155520
                  97        4         1.73193        1.76376        3.54965     0.134600    -0.089703    -0.275075
                  98        4         8.78858        8.76570        3.56224     -0.052863    0.015082    0.016032
                  99        4         7.06936        5.30666        5.29673     0.030387    0.089387    -0.027060
                  100        4         0.00954        5.30721        1.76088     -0.056355    0.300901    0.090121
                  101        4         0.05920        1.79614        5.27208     -0.242442    -0.065849    0.147923
                  102        4         3.47061        5.32769        5.25310     0.100022    -0.062914    0.059676
                  103        4         10.53665        10.52620        7.05170     0.016113    -0.021208    -0.106934
                  104        4         5.31200        3.51189        8.81269     -0.042447    0.119530    -0.053807
                  105        4         10.50299        5.28283        5.28275     0.194812    0.019831    0.085267
                  106        4         0.02936        3.51782        7.05173     -0.120310    -0.026908    -0.072951
                  107        4         1.75736        5.25236        7.03415     -0.032590    0.182915    -0.031345
                  108        4         3.47378        8.80638        8.83536     0.024035    0.003006    -0.162674
 Energy
     -836.242652
 PlusStress:    xx          yy          zz          yz          xz          xy 
              -42.260      -38.768      -40.304      0.948      -2.372      0.313   
 Feature    EFS_by	VASP
END_CFG


BEGIN_CFG 
 Size
     108
 Supercell
     -0.006762089     -0.003182920     10.553238910
     10.554376762     0.002001401     -0.000000000
     0.000000000     10.550525892     0.000000000
 AtomData:       id       type       cartes_x       cartes_y       cartes_z       fx          fy          fz
                  1        0         5.22974        5.29076        0.07874     0.069867    0.040181    -0.399945
                  2        0         8.79946        7.09689        1.72966     0.189765    -0.222140    0.093296
                  3        0         8.83328        5.25738        3.53358     -0.073825    0.096280    -0.072662
                  4        0         8.72539        0.06725        8.87339     -0.026899    -0.156099    -0.328349
                  5        0         1.78393        5.29338        10.53179     -0.054526    -0.056049    -0.176286
                  6        0         5.26248        8.82617        0.01250     -0.040847    -0.086285    0.092192
                  7        0         0.02157        1.73890        1.75930     0.002879    -0.033521    0.092442
                  8        0         1.69558        3.52663        1.72470     0.204338    -0.131691    0.113390
                  9        0         10.54349        10.54978        3.52795     -0.031664    -0.123667    0.080206
                  10        0         0.00664        7.10852        10.50813     0.224296    -0.219772    0.049930
                  11        0         1.80925        7.08023        1.76322     -0.378760    0.145793    0.052005
                  12        0         1.74820        5.26885        3.52738     -0.149167    -0.025683    0.028227
                  13        0         3.52907        7.11441        3.46666     -0.087588    -0.279460    0.338852
                  14        0         5.25645        7.02074        5.25248     0.055956    -0.019036    0.195426
                  15        0         1.76742        1.76728        7.09179     0.009382    -0.100656    -0.023805
                  16        0         8.86309        7.05126        8.75098     -0.122255    0.164989    0.123494
                  17        0         1.74405        8.72052        3.57590     0.129854    0.288031    -0.297762
                  18        0         5.29155        8.75251        7.01999     -0.085782    0.092427    0.142938
                  19        0         1.75905        3.45474        8.82195     0.038754    0.130445    0.059879
                  20        0         5.25807        7.02820        8.79058     -0.303360    0.008453    0.010559
                  21        0         0.07591        8.73700        5.27625     -0.281957    0.222848    0.040177
                  22        1         8.86570        10.45998        1.75674     -0.167510    0.038462    0.288282
                  23        1         3.57178        0.04938        0.01287     -0.173923    -0.070921    0.057993
                  24        1         5.19344        1.73514        0.04593     0.099603    0.017783    -0.011460
                  25        1         5.31724        0.00142        1.68151     -0.209820    0.225125    0.268668
                  26        1         1.74381        1.75229        10.54545     0.180716    -0.071271    0.023710
                  27        1         8.83009        8.77529        10.51270     0.026905    -0.031536    -0.137804
                  28        1         3.49464        1.79950        1.75351     -0.118843    -0.176894    0.194063
                  29        1         8.74696        3.53759        5.16760     0.130205    -0.152083    0.344997
                  30        1         3.34569        5.26617        1.78220     0.315259    0.071164    0.205876
                  31        1         3.47248        3.54388        3.48150     0.098193    -0.046480    0.018470
                  32        1         8.80230        7.09741        5.38702     0.038367    0.016901    -0.137269
                  33        1         3.48653        10.51362        6.90349     0.062229    0.144645    0.258140